ITEM: TIMESTEP
0
ITEM: NUMBER OF ATOMS
3048
ITEM: BOX BOUNDS pp pp pp
-50 50
-50 50
0.272423 166.342
ITEM: ATOMS id type xu yu zu
 1 1 7.55418 1.12951 25.4989
 2 1 7.26626 2.35433 26.1527
 3 1 7.2466 2.41416 27.5693
 4 1 6.75196 3.57106 28.2231
 5 1 7.5798 0.942316 21.2491
 6 1 7.32227 2.17388 21.9029
 7 1 7.30409 2.23418 23.3195
 8 1 6.83822 3.40296 23.9733
 9 1 6.80993 3.45923 25.3899
 10 1 6.14965 4.53026 26.0437
 11 1 6.11208 4.58081 27.4603
 12 1 5.27714 5.52206 28.1141
 13 1 7.60079 0.754546 16.9992
 14 1 7.3738 1.9921 17.6531
 15 1 7.35712 2.05284 19.0697
 16 1 6.9203 3.23278 19.7235
 17 1 6.89341 3.28973 21.1401
 18 1 6.25982 4.37676 21.7939
 19 1 6.22352 4.42823 23.2105
 20 1 5.41211 5.38984 23.8643
 21 1 5.36749 5.43429 25.2809
 22 1 4.40253 6.24172 25.9347
 23 1 4.35092 6.27781 27.3513
 24 1 3.26128 6.90691 28.0052
 25 1 7.61713 0.566314 12.7494
 26 1 7.42082 1.80911 13.4032
 27 1 7.40565 1.87024 14.8199
 28 1 6.99814 3.06062 15.4737
 29 1 6.97267 3.11822 16.8903
 30 1 6.36616 4.22059 17.5441
 31 1 6.33114 4.27294 18.9607
 32 1 5.54377 5.25433 19.6145
 33 1 5.50026 5.29986 21.0311
 34 1 4.55557 6.13092 21.6849
 35 1 4.50487 6.16827 23.1015
 36 1 3.43112 6.82413 23.7554
 37 1 3.37474 6.85219 25.172
 38 1 2.20405 7.31324 25.8258
 39 1 2.14367 7.33117 27.2424
 40 1 0.911058 7.58362 27.8962
 41 1 7.62881 0.377735 8.49962
 42 1 7.46329 1.625 9.15344
 43 1 7.44964 1.68649 10.57
 44 1 7.0717 2.88659 11.2239
 45 1 7.04766 2.9448 12.6405
 46 1 6.46861 4.06184 13.2943
 47 1 6.43489 4.11504 14.7109
 48 1 5.67204 5.1156 15.3647
 49 1 5.62966 5.1622 16.7813
 50 1 4.70582 6.01636 17.4351
 51 1 4.65606 6.05496 18.8517
 52 1 3.59886 6.73718 19.5055
 53 1 3.54319 6.76662 20.9221
 54 1 2.38427 7.25649 21.576
 55 1 2.32435 7.2759 22.9926
 56 1 1.09836 7.55877 23.6464
 57 1 1.03599 7.56757 25.063
 58 1 -0.220405 7.63497 25.7168
 59 1 -0.283352 7.63289 27.1334
 60 1 -1.53257 7.48282 27.7872
 61 1 7.63582 0.188925 4.24981
 62 1 7.5012 1.43991 4.90363
 63 1 7.48908 1.50171 6.32023
 64 1 7.14094 2.71079 6.97405
 65 1 7.11834 2.76958 8.39065
 66 1 6.56709 3.9006 9.04447
 67 1 6.53471 3.95461 10.4611
 68 1 5.79683 4.97374 11.1149
 69 1 5.75563 5.02137 12.5315
 70 1 4.8532 5.89812 13.1853
 71 1 4.8044 5.93794 14.6019
 72 1 3.7644 6.6461 15.2557
 73 1 3.70947 6.67691 16.6723
 74 1 2.56302 7.1953 17.3262
 75 1 2.50361 7.21619 18.7428
 76 1 1.28498 7.52929 19.3966
 77 1 1.22285 7.53963 20.8132
 78 1 -0.0314907 7.63809 21.467
 79 1 -0.0944699 7.63757 22.8836
 80 1 -1.34702 7.51844 23.5374
 81 1 -1.40897 7.50708 24.954
 82 1 -2.62226 7.17392 25.6078
 83 1 -2.68133 7.15205 27.0244
 84 1 -3.81908 6.61483 27.6783
 85 1 7.63815 0 0
 86 1 7.53452 1.25393 0.653817
 87 1 7.52393 1.31601 2.07042
 88 1 7.2058 2.53333 2.72424
 89 1 7.18467 2.59266 4.14084
 90 1 6.66156 3.73697 4.79466
 91 1 6.63052 3.79177 6.21126
 92 1 5.91808 4.82884 6.86508
 93 1 5.87807 4.87747 8.28168
 94 1 4.9976 5.77628 8.9355
 95 1 4.9498 5.81729 10.3521
 96 1 3.92764 6.55096 11.0059
 97 1 3.87349 6.58312 12.4225
 98 1 2.74021 7.1297 13.0763
 99 1 2.68133 7.15205 14.4929
 100 1 1.47082 7.4952 15.1468
 101 1 1.40897 7.50708 16.5634
 102 1 0.157443 7.63653 17.2172
 103 1 0.0944699 7.63757 18.6338
 104 1 -1.16064 7.54946 19.2876
 105 1 -1.22285 7.53963 20.7042
 106 1 -2.44402 7.23658 21.358
 107 1 -2.50361 7.21619 22.7746
 108 1 -3.65429 6.70727 23.4284
 109 1 -3.70947 6.67691 24.845
 110 1 -4.75527 5.97735 25.4989
 111 1 -4.8044 5.93794 26.9155
 112 1 -5.71403 5.06866 27.5693
 113 1 6.72228 3.62661 1.96145
 114 1 6.03571 4.68098 2.61527
 115 1 5.99691 4.73059 4.03187
 116 1 5.13894 5.6509 4.68569
 117 1 5.09217 5.69308 6.10229
 118 1 4.08847 6.4518 6.75611
 119 1 4.03513 6.4853 8.17271
 120 1 2.91572 7.05974 8.82653
 121 1 2.85741 7.08354 10.2431
 122 1 1.65576 7.45653 10.897
 123 1 1.59422 7.46993 12.3136
 124 1 0.34628 7.6303 12.9674
 125 1 0.283352 7.63289 14.384
 126 1 -0.973558 7.57585 15.0378
 127 1 -1.03599 7.56757 16.4544
 128 1 -2.26428 7.29482 17.1082
 129 1 -2.32435 7.2759 18.5248
 130 1 -3.48728 6.79561 19.1786
 131 1 -3.54319 6.76662 20.5952
 132 1 -4.60597 6.09314 21.2491
 133 1 -4.65606 6.05496 22.6657
 134 1 -5.58691 5.20844 23.3195
 135 1 -5.62966 5.1622 24.7361
 136 1 -6.40074 4.16796 25.3899
 137 1 -6.43489 4.11504 26.8065
 138 1 -7.02314 3.00281 27.4603
 139 1 5.23143 5.56539 1.85248
 140 1 4.2468 6.3487 2.5063
 141 1 4.19431 6.38351 3.9229
 142 1 3.08945 6.98546 4.57672
 143 1 3.03174 7.0107 5.99332
 144 1 1.83969 7.41329 6.64714
 145 1 1.7785 7.42821 8.06374
 146 1 0.534905 7.6194 8.71756
 147 1 0.47206 7.62355 10.1342
 148 1 -0.785876 7.59762 10.788
 149 1 -0.848496 7.59088 12.2046
 150 1 -2.08315 7.3486 12.8584
 151 1 -2.14367 7.33117 14.275
 152 1 -3.31812 6.87978 14.9288
 153 1 -3.37474 6.85219 16.3454
 154 1 -4.45385 6.20521 16.9992
 155 1 -4.50487 6.16827 18.4158
 156 1 -5.45637 5.34504 19.0697
 157 1 -5.50026 5.29986 20.4863
 158 1 -6.29569 4.325 21.1401
 159 1 -6.33114 4.27294 22.5567
 160 1 -6.94672 3.17561 23.2105
 161 1 -6.97267 3.11822 24.6271
 162 1 -7.38997 1.93124 25.2809
 163 1 -7.40565 1.87024 26.6975
 164 1 -7.6122 0.629102 27.3513
 165 1 3.20422 6.93357 1.74351
 166 1 2.02249 7.36552 2.39733
 167 1 1.96169 7.38195 3.81393
 168 1 0.723203 7.60384 4.46775
 169 1 0.66048 7.60954 5.88435
 170 1 -0.597713 7.61473 6.53817
 171 1 -0.66048 7.60954 7.95477
 172 1 -1.90075 7.39787 8.60859
 173 1 -1.96169 7.38195 10.0252
 174 1 -3.14694 6.95975 10.679
 175 1 -3.20422 6.93357 12.0956
 176 1 -4.29901 6.31347 12.7494
 177 1 -4.35092 6.27781 14.166
 178 1 -5.32249 5.47836 14.8199
 179 1 -5.36749 5.43429 16.2365
 180 1 -6.18679 4.4794 16.8903
 181 1 -6.22352 4.42823 18.3069
 182 1 -6.86605 3.34646 18.9607
 183 1 -6.89341 3.28973 20.3773
 184 1 -7.33994 2.11343 21.0311
 185 1 -7.35712 2.05284 22.4477
 186 1 -7.59431 0.817193 23.1015
 187 1 -7.60079 0.754546 24.5181
 188 1 -7.62154 -0.503487 25.172
 189 1 -7.61713 -0.566314 26.5886
 190 1 -7.42082 -1.80911 27.2424
 191 1 0.848496 7.59088 1.63454
 192 1 -0.409184 7.62718 2.28836
 193 1 -0.47206 7.62355 3.70496
 194 1 -1.71719 7.44262 4.35878
 195 1 -1.7785 7.42821 5.77538
 196 1 -2.97383 7.03546 6.4292
 197 1 -3.03174 7.0107 7.8458
 198 1 -4.14153 6.41787 8.49962
 199 1 -4.19431 6.38351 9.91623
 200 1 -5.18536 5.60833 10.57
 201 1 -5.23143 5.56539 11.9866
 202 1 -6.0741 4.63105 12.6405
 203 1 -6.11208 4.58081 14.0571
 204 1 -6.78117 3.51526 14.7109
 205 1 -6.80993 3.45923 16.1275
 206 1 -7.28542 2.29433 16.7813
 207 1 -7.30409 2.23418 18.1979
 208 1 -7.57178 1.00478 18.8517
 209 1 -7.5798 0.942316 20.2683
 210 1 -7.63166 -0.314818 20.9221
 211 1 -7.62881 -0.377735 22.3387
 212 1 -7.46329 -1.625 22.9926
 213 1 -7.44964 -1.68649 24.4092
 214 1 -7.0717 -2.88659 25.063
 215 1 -7.04766 -2.9448 26.4796
 216 1 -6.46861 -4.06184 27.1334
 217 1 -1.59422 7.46993 1.52557
 218 1 -2.7989 7.10686 2.17939
 219 1 -2.85741 7.08354 3.59599
 220 1 -3.98152 6.51835 4.24981
 221 1 -4.03513 6.4853 5.66641
 222 1 -5.04506 5.73487 6.32023
 223 1 -5.09217 5.69308 7.73684
 224 1 -5.9577 4.77988 8.39065
 225 1 -5.99691 4.73059 9.80726
 226 1 -6.69215 3.68192 10.4611
 227 1 -6.72228 3.62661 11.8777
 228 1 -7.22645 2.47383 12.5315
 229 1 -7.2466 2.41416 13.9481
 230 1 -7.54461 1.19176 14.6019
 231 1 -7.55418 1.12951 16.0185
 232 1 -7.63711 -0.125957 16.6723
 233 1 -7.63582 -0.188925 18.0889
 234 1 -7.5012 -1.43991 18.7428
 235 1 -7.48908 -1.50171 20.1594
 236 1 -7.14094 -2.71079 20.8132
 237 1 -7.11834 -2.76958 22.2298
 238 1 -6.56709 -3.9006 22.8836
 239 1 -6.53471 -3.95461 24.3002
 240 1 -5.79683 -4.97374 24.954
 241 1 -5.75563 -5.02137 26.3706
 242 1 -4.8532 -5.89812 27.0244
 243 1 -3.87349 6.58312 1.4166
 244 1 -4.90166 5.85791 2.07042
 245 1 -4.9498 5.81729 3.48702
 246 1 -5.83765 4.92577 4.14084
 247 1 -5.87807 4.87747 5.55745
 248 1 -6.59903 3.84632 6.21126
 249 1 -6.63052 3.79177 7.62787
 250 1 -7.16305 2.65182 8.28168
 251 1 -7.18467 2.59266 9.69829
 252 1 -7.51282 1.37801 10.3521
 253 1 -7.52393 1.31601 11.7687
 254 1 -7.63789 0.0629808 12.4225
 255 1 -7.63815 -5.84864e-15 13.8391
 256 1 -7.53452 -1.25393 14.4929
 257 1 -7.52393 -1.31601 15.9095
 258 1 -7.2058 -2.53333 16.5634
 259 1 -7.18467 -2.59266 17.98
 260 1 -6.66156 -3.73697 18.6338
 261 1 -6.63052 -3.79177 20.0504
 262 1 -5.91808 -4.82884 20.7042
 263 1 -5.87807 -4.87747 22.1208
 264 1 -4.9976 -5.77628 22.7746
 265 1 -4.9498 -5.81729 24.1912
 266 1 -3.92764 -6.55096 24.845
 267 1 -3.87349 -6.58312 26.2617
 268 1 -2.74021 -7.1297 26.9155
 269 1 -5.75563 5.02137 1.30763
 270 1 -6.50188 4.00836 1.96145
 271 1 -6.53471 3.95461 3.37805
 272 1 -7.09526 2.82818 4.03187
 273 1 -7.11834 2.76958 5.44848
 274 1 -7.47644 1.56341 6.10229
 275 1 -7.48908 1.50171 7.5189
 276 1 -7.634 0.25188 8.17271
 277 1 -7.63582 0.188925 9.58932
 278 1 -7.56323 -1.06718 10.2431
 279 1 -7.55418 -1.12951 11.6597
 280 1 -7.26626 -2.35433 12.3136
 281 1 -7.2466 -2.41416 13.7302
 282 1 -6.75196 -3.57106 14.384
 283 1 -6.72228 -3.62661 15.8006
 284 1 -6.03571 -4.68098 16.4544
 285 1 -5.99691 -4.73059 17.871
 286 1 -5.13894 -5.6509 18.5248
 287 1 -5.09217 -5.69308 19.9414
 288 1 -4.08847 -6.4518 20.5952
 289 1 -4.03513 -6.4853 22.0118
 290 1 -2.91572 -7.05974 22.6657
 291 1 -2.85741 -7.08354 24.0823
 292 1 -1.65576 -7.45653 24.7361
 293 1 -1.59422 -7.46993 26.1527
 294 1 -0.34628 -7.6303 26.8065
 295 1 -7.04766 2.9448 1.19866
 296 1 -7.43548 1.74786 1.85248
 297 1 -7.44964 1.68649 3.26909
 298 1 -7.62543 0.440626 3.9229
 299 1 -7.62881 0.377735 5.33951
 300 1 -7.58732 -0.879784 5.99332
 301 1 -7.5798 -0.942316 7.40993
 302 1 -7.32227 -2.17388 8.06374
 303 1 -7.30409 -2.23418 9.48035
 304 1 -6.83822 -3.40296 10.1342
 305 1 -6.80993 -3.45923 11.5508
 306 1 -6.14965 -4.53026 12.2046
 307 1 -6.11208 -4.58081 13.6212
 308 1 -5.27714 -5.52206 14.275
 309 1 -5.23143 -5.56539 15.6916
 310 1 -4.2468 -6.3487 16.3454
 311 1 -4.19431 -6.38351 17.762
 312 1 -3.08945 -6.98546 18.4158
 313 1 -3.03174 -7.0107 19.8325
 314 1 -1.83969 -7.41329 20.4863
 315 1 -1.7785 -7.42821 21.9029
 316 1 -0.534905 -7.6194 22.5567
 317 1 -0.47206 -7.62355 23.9733
 318 1 0.785876 -7.59762 24.6271
 319 1 0.848496 -7.59088 26.0437
 320 1 2.08315 -7.3486 26.6975
 321 1 -7.61713 0.566314 1.0897
 322 1 -7.60676 -0.691847 1.74351
 323 1 -7.60079 -0.754546 3.16012
 324 1 -7.3738 -1.9921 3.81393
 325 1 -7.35712 -2.05284 5.23054
 326 1 -6.9203 -3.23278 5.88435
 327 1 -6.89341 -3.28973 7.30096
 328 1 -6.25982 -4.37676 7.95477
 329 1 -6.22352 -4.42823 9.37138
 330 1 -5.41211 -5.38984 10.0252
 331 1 -5.36749 -5.43429 11.4418
 332 1 -4.40253 -6.24172 12.0956
 333 1 -4.35092 -6.27781 13.5122
 334 1 -3.26128 -6.90691 14.166
 335 1 -3.20422 -6.93357 15.5826
 336 1 -2.02249 -7.36552 16.2365
 337 1 -1.96169 -7.38195 17.6531
 338 1 -0.723203 -7.60384 18.3069
 339 1 -0.66048 -7.60954 19.7235
 340 1 0.597713 -7.61473 20.3773
 341 1 0.66048 -7.60954 21.7939
 342 1 1.90075 -7.39787 22.4477
 343 1 1.96169 -7.38195 23.8643
 344 1 3.14694 -6.95975 24.5181
 345 1 3.20422 -6.93357 25.9347
 346 1 4.29901 -6.31347 26.5886
 347 1 -7.40565 -1.87024 0.980726
 348 1 -6.99814 -3.06062 1.63454
 349 1 -6.97267 -3.11822 3.05115
 350 1 -6.36616 -4.22059 3.70496
 351 1 -6.33114 -4.27294 5.12157
 352 1 -5.54377 -5.25433 5.77538
 353 1 -5.50026 -5.29986 7.19199
 354 1 -4.55557 -6.13092 7.8458
 355 1 -4.50487 -6.16827 9.26241
 356 1 -3.43112 -6.82413 9.91623
 357 1 -3.37474 -6.85219 11.3328
 358 1 -2.20405 -7.31324 11.9866
 359 1 -2.14367 -7.33117 13.4032
 360 1 -0.911058 -7.58362 14.0571
 361 1 -0.848496 -7.59088 15.4737
 362 1 0.409184 -7.62718 16.1275
 363 1 0.47206 -7.62355 17.5441
 364 1 1.71719 -7.44262 18.1979
 365 1 1.7785 -7.42821 19.6145
 366 1 2.97383 -7.03546 20.2683
 367 1 3.03174 -7.0107 21.6849
 368 1 4.14153 -6.41787 22.3387
 369 1 4.19431 -6.38351 23.7554
 370 1 5.18536 -5.60833 24.4092
 371 1 5.23143 -5.56539 25.8258
 372 1 6.0741 -4.63105 26.4796
 373 1 -6.43489 -4.11504 0.871756
 374 1 -5.67204 -5.1156 1.52557
 375 1 -5.62966 -5.1622 2.94218
 376 1 -4.70582 -6.01636 3.59599
 377 1 -4.65606 -6.05496 5.0126
 378 1 -3.59886 -6.73718 5.66641
 379 1 -3.54319 -6.76662 7.08302
 380 1 -2.38427 -7.25649 7.73684
 381 1 -2.32435 -7.2759 9.15344
 382 1 -1.09836 -7.55877 9.80726
 383 1 -1.03599 -7.56757 11.2239
 384 1 0.220405 -7.63497 11.8777
 385 1 0.283352 -7.63289 13.2943
 386 1 1.53257 -7.48282 13.9481
 387 1 1.59422 -7.46993 15.3647
 388 1 2.7989 -7.10686 16.0185
 389 1 2.85741 -7.08354 17.4351
 390 1 3.98152 -6.51835 18.0889
 391 1 4.03513 -6.4853 19.5055
 392 1 5.04506 -5.73487 20.1594
 393 1 5.09217 -5.69308 21.576
 394 1 5.9577 -4.77988 22.2298
 395 1 5.99691 -4.73059 23.6464
 396 1 6.69215 -3.68192 24.3002
 397 1 6.72228 -3.62661 25.7168
 398 1 7.22645 -2.47383 26.3706
 399 1 -4.8044 -5.93794 0.762787
 400 1 -3.7644 -6.6461 1.4166
 401 1 -3.70947 -6.67691 2.83321
 402 1 -2.56302 -7.1953 3.48702
 403 1 -2.50361 -7.21619 4.90363
 404 1 -1.28498 -7.52929 5.55745
 405 1 -1.22285 -7.53963 6.97405
 406 1 0.0314907 -7.63809 7.62787
 407 1 0.0944699 -7.63757 9.04447
 408 1 1.34702 -7.51844 9.69829
 409 1 1.40897 -7.50708 11.1149
 410 1 2.62226 -7.17392 11.7687
 411 1 2.68133 -7.15205 13.1853
 412 1 3.81908 -6.61483 13.8391
 413 1 3.87349 -6.58312 15.2557
 414 1 4.90166 -5.85791 15.9095
 415 1 4.9498 -5.81729 17.3262
 416 1 5.83765 -4.92577 17.98
 417 1 5.87807 -4.87747 19.3966
 418 1 6.59903 -3.84632 20.0504
 419 1 6.63052 -3.79177 21.467
 420 1 7.16305 -2.65182 22.1208
 421 1 7.18467 -2.59266 23.5374
 422 1 7.51282 -1.37801 24.1912
 423 1 7.52393 -1.31601 25.6078
 424 1 7.63789 -0.0629808 26.2617
 425 1 -2.68133 -7.15205 0.653817
 426 1 -1.47082 -7.4952 1.30763
 427 1 -1.40897 -7.50708 2.72424
 428 1 -0.157443 -7.63653 3.37805
 429 1 -0.0944699 -7.63757 4.79466
 430 1 1.16064 -7.54946 5.44848
 431 1 1.22285 -7.53963 6.86508
 432 1 2.44402 -7.23658 7.5189
 433 1 2.50361 -7.21619 8.9355
 434 1 3.65429 -6.70727 9.58932
 435 1 3.70947 -6.67691 11.0059
 436 1 4.75527 -5.97735 11.6597
 437 1 4.8044 -5.93794 13.0763
 438 1 5.71403 -5.06866 13.7302
 439 1 5.75563 -5.02137 15.1468
 440 1 6.50188 -4.00836 15.8006
 441 1 6.53471 -3.95461 17.2172
 442 1 7.09526 -2.82818 17.871
 443 1 7.11834 -2.76958 19.2876
 444 1 7.47644 -1.56341 19.9414
 445 1 7.48908 -1.50171 21.358
 446 1 7.634 -0.25188 22.0118
 447 1 7.63582 -0.188925 23.4284
 448 1 7.56323 1.06718 24.0823
 449 1 -0.283352 -7.63289 0.544848
 450 1 0.973558 -7.57585 1.19866
 451 1 1.03599 -7.56757 2.61527
 452 1 2.26428 -7.29482 3.26909
 453 1 2.32435 -7.2759 4.68569
 454 1 3.48728 -6.79561 5.33951
 455 1 3.54319 -6.76662 6.75611
 456 1 4.60597 -6.09314 7.40993
 457 1 4.65606 -6.05496 8.82653
 458 1 5.58691 -5.20844 9.48035
 459 1 5.62966 -5.1622 10.897
 460 1 6.40074 -4.16796 11.5508
 461 1 6.43489 -4.11504 12.9674
 462 1 7.02314 -3.00281 13.6212
 463 1 7.04766 -2.9448 15.0378
 464 1 7.43548 -1.74786 15.6916
 465 1 7.44964 -1.68649 17.1082
 466 1 7.62543 -0.440626 17.762
 467 1 7.62881 -0.377735 19.1786
 468 1 7.58732 0.879784 19.8325
 469 1 2.14367 -7.33117 0.435878
 470 1 3.31812 -6.87978 1.0897
 471 1 3.37474 -6.85219 2.5063
 472 1 4.45385 -6.20521 3.16012
 473 1 4.50487 -6.16827 4.57672
 474 1 5.45637 -5.34504 5.23054
 475 1 5.50026 -5.29986 6.64714
 476 1 6.29569 -4.325 7.30096
 477 1 6.33114 -4.27294 8.71756
 478 1 6.94672 -3.17561 9.37138
 479 1 6.97267 -3.11822 10.788
 480 1 7.38997 -1.93124 11.4418
 481 1 7.40565 -1.87024 12.8584
 482 1 7.6122 -0.629102 13.5122
 483 1 7.61713 -0.566314 14.9288
 484 1 7.60676 0.691847 15.5826
 485 1 4.35092 -6.27781 0.326909
 486 1 5.32249 -5.47836 0.980726
 487 1 5.36749 -5.43429 2.39733
 488 1 6.18679 -4.4794 3.05115
 489 1 6.22352 -4.42823 4.46775
 490 1 6.86605 -3.34646 5.12157
 491 1 6.89341 -3.28973 6.53817
 492 1 7.33994 -2.11343 7.19199
 493 1 7.35712 -2.05284 8.60859
 494 1 7.59431 -0.817193 9.26241
 495 1 7.60079 -0.754546 10.679
 496 1 7.62154 0.503487 11.3328
 497 1 6.11208 -4.58081 0.217939
 498 1 6.78117 -3.51526 0.871756
 499 1 6.80993 -3.45923 2.28836
 500 1 7.28542 -2.29433 2.94218
 501 1 7.30409 -2.23418 4.35878
 502 1 7.57178 -1.00478 5.0126
 503 1 7.5798 -0.942316 6.4292
 504 1 7.63166 0.314818 7.08302
 505 1 7.2466 -2.41416 0.10897
 506 1 7.54461 -1.19176 0.762787
 507 1 7.55418 -1.12951 2.17939
 508 1 7.63711 0.125957 2.83321
 509 1 7.55418 1.12951 53.1771
 510 1 7.26626 2.35433 53.8309
 511 1 7.2466 2.41416 55.2475
 512 1 6.75196 3.57106 55.9014
 513 1 7.5798 0.942316 48.9273
 514 1 7.32227 2.17388 49.5811
 515 1 7.30409 2.23418 50.9977
 516 1 6.83822 3.40296 51.6515
 517 1 6.80993 3.45923 53.0682
 518 1 6.14965 4.53026 53.722
 519 1 6.11208 4.58081 55.1386
 520 1 5.27714 5.52206 55.7924
 521 1 7.60079 0.754546 44.6775
 522 1 7.3738 1.9921 45.3313
 523 1 7.35712 2.05284 46.7479
 524 1 6.9203 3.23278 47.4017
 525 1 6.89341 3.28973 48.8183
 526 1 6.25982 4.37676 49.4722
 527 1 6.22352 4.42823 50.8888
 528 1 5.41211 5.38984 51.5426
 529 1 5.36749 5.43429 52.9592
 530 1 4.40253 6.24172 53.613
 531 1 4.35092 6.27781 55.0296
 532 1 3.26128 6.90691 55.6834
 533 1 7.61713 0.566314 40.4277
 534 1 7.42082 1.80911 41.0815
 535 1 7.40565 1.87024 42.4981
 536 1 6.99814 3.06062 43.1519
 537 1 6.97267 3.11822 44.5685
 538 1 6.36616 4.22059 45.2223
 539 1 6.33114 4.27294 46.639
 540 1 5.54377 5.25433 47.2928
 541 1 5.50026 5.29986 48.7094
 542 1 4.55557 6.13092 49.3632
 543 1 4.50487 6.16827 50.7798
 544 1 3.43112 6.82413 51.4336
 545 1 3.37474 6.85219 52.8502
 546 1 2.20405 7.31324 53.504
 547 1 2.14367 7.33117 54.9206
 548 1 0.911058 7.58362 55.5745
 549 1 7.62881 0.377735 36.1779
 550 1 7.46329 1.625 36.8317
 551 1 7.44964 1.68649 38.2483
 552 1 7.0717 2.88659 38.9021
 553 1 7.04766 2.9448 40.3187
 554 1 6.46861 4.06184 40.9725
 555 1 6.43489 4.11504 42.3891
 556 1 5.67204 5.1156 43.043
 557 1 5.62966 5.1622 44.4596
 558 1 4.70582 6.01636 45.1134
 559 1 4.65606 6.05496 46.53
 560 1 3.59886 6.73718 47.1838
 561 1 3.54319 6.76662 48.6004
 562 1 2.38427 7.25649 49.2542
 563 1 2.32435 7.2759 50.6708
 564 1 1.09836 7.55877 51.3246
 565 1 1.03599 7.56757 52.7412
 566 1 -0.220405 7.63497 53.3951
 567 1 -0.283352 7.63289 54.8117
 568 1 -1.53257 7.48282 55.4655
 569 1 7.63582 0.188925 31.9281
 570 1 7.5012 1.43991 32.5819
 571 1 7.48908 1.50171 33.9985
 572 1 7.14094 2.71079 34.6523
 573 1 7.11834 2.76958 36.0689
 574 1 6.56709 3.9006 36.7227
 575 1 6.53471 3.95461 38.1393
 576 1 5.79683 4.97374 38.7931
 577 1 5.75563 5.02137 40.2098
 578 1 4.8532 5.89812 40.8636
 579 1 4.8044 5.93794 42.2802
 580 1 3.7644 6.6461 42.934
 581 1 3.70947 6.67691 44.3506
 582 1 2.56302 7.1953 45.0044
 583 1 2.50361 7.21619 46.421
 584 1 1.28498 7.52929 47.0748
 585 1 1.22285 7.53963 48.4914
 586 1 -0.0314907 7.63809 49.1452
 587 1 -0.0944699 7.63757 50.5619
 588 1 -1.34702 7.51844 51.2157
 589 1 -1.40897 7.50708 52.6323
 590 1 -2.62226 7.17392 53.2861
 591 1 -2.68133 7.15205 54.7027
 592 1 -3.81908 6.61483 55.3565
 593 1 7.63815 0 27.6783
 594 1 7.53452 1.25393 28.3321
 595 1 7.52393 1.31601 29.7487
 596 1 7.2058 2.53333 30.4025
 597 1 7.18467 2.59266 31.8191
 598 1 6.66156 3.73697 32.4729
 599 1 6.63052 3.79177 33.8895
 600 1 5.91808 4.82884 34.5433
 601 1 5.87807 4.87747 35.9599
 602 1 4.9976 5.77628 36.6138
 603 1 4.9498 5.81729 38.0304
 604 1 3.92764 6.55096 38.6842
 605 1 3.87349 6.58312 40.1008
 606 1 2.74021 7.1297 40.7546
 607 1 2.68133 7.15205 42.1712
 608 1 1.47082 7.4952 42.825
 609 1 1.40897 7.50708 44.2416
 610 1 0.157443 7.63653 44.8954
 611 1 0.0944699 7.63757 46.312
 612 1 -1.16064 7.54946 46.9659
 613 1 -1.22285 7.53963 48.3825
 614 1 -2.44402 7.23658 49.0363
 615 1 -2.50361 7.21619 50.4529
 616 1 -3.65429 6.70727 51.1067
 617 1 -3.70947 6.67691 52.5233
 618 1 -4.75527 5.97735 53.1771
 619 1 -4.8044 5.93794 54.5937
 620 1 -5.71403 5.06866 55.2475
 621 1 6.72228 3.62661 29.6397
 622 1 6.03571 4.68098 30.2935
 623 1 5.99691 4.73059 31.7101
 624 1 5.13894 5.6509 32.3639
 625 1 5.09217 5.69308 33.7805
 626 1 4.08847 6.4518 34.4344
 627 1 4.03513 6.4853 35.851
 628 1 2.91572 7.05974 36.5048
 629 1 2.85741 7.08354 37.9214
 630 1 1.65576 7.45653 38.5752
 631 1 1.59422 7.46993 39.9918
 632 1 0.34628 7.6303 40.6456
 633 1 0.283352 7.63289 42.0622
 634 1 -0.973558 7.57585 42.716
 635 1 -1.03599 7.56757 44.1327
 636 1 -2.26428 7.29482 44.7865
 637 1 -2.32435 7.2759 46.2031
 638 1 -3.48728 6.79561 46.8569
 639 1 -3.54319 6.76662 48.2735
 640 1 -4.60597 6.09314 48.9273
 641 1 -4.65606 6.05496 50.3439
 642 1 -5.58691 5.20844 50.9977
 643 1 -5.62966 5.1622 52.4143
 644 1 -6.40074 4.16796 53.0682
 645 1 -6.43489 4.11504 54.4848
 646 1 -7.02314 3.00281 55.1386
 647 1 5.23143 5.56539 29.5307
 648 1 4.2468 6.3487 30.1846
 649 1 4.19431 6.38351 31.6012
 650 1 3.08945 6.98546 32.255
 651 1 3.03174 7.0107 33.6716
 652 1 1.83969 7.41329 34.3254
 653 1 1.7785 7.42821 35.742
 654 1 0.534905 7.6194 36.3958
 655 1 0.47206 7.62355 37.8124
 656 1 -0.785876 7.59762 38.4662
 657 1 -0.848496 7.59088 39.8828
 658 1 -2.08315 7.3486 40.5367
 659 1 -2.14367 7.33117 41.9533
 660 1 -3.31812 6.87978 42.6071
 661 1 -3.37474 6.85219 44.0237
 662 1 -4.45385 6.20521 44.6775
 663 1 -4.50487 6.16827 46.0941
 664 1 -5.45637 5.34504 46.7479
 665 1 -5.50026 5.29986 48.1645
 666 1 -6.29569 4.325 48.8183
 667 1 -6.33114 4.27294 50.2349
 668 1 -6.94672 3.17561 50.8888
 669 1 -6.97267 3.11822 52.3054
 670 1 -7.38997 1.93124 52.9592
 671 1 -7.40565 1.87024 54.3758
 672 1 -7.6122 0.629102 55.0296
 673 1 3.20422 6.93357 29.4218
 674 1 2.02249 7.36552 30.0756
 675 1 1.96169 7.38195 31.4922
 676 1 0.723203 7.60384 32.146
 677 1 0.66048 7.60954 33.5626
 678 1 -0.597713 7.61473 34.2164
 679 1 -0.66048 7.60954 35.633
 680 1 -1.90075 7.39787 36.2868
 681 1 -1.96169 7.38195 37.7034
 682 1 -3.14694 6.95975 38.3573
 683 1 -3.20422 6.93357 39.7739
 684 1 -4.29901 6.31347 40.4277
 685 1 -4.35092 6.27781 41.8443
 686 1 -5.32249 5.47836 42.4981
 687 1 -5.36749 5.43429 43.9147
 688 1 -6.18679 4.4794 44.5685
 689 1 -6.22352 4.42823 45.9851
 690 1 -6.86605 3.34646 46.639
 691 1 -6.89341 3.28973 48.0556
 692 1 -7.33994 2.11343 48.7094
 693 1 -7.35712 2.05284 50.126
 694 1 -7.59431 0.817193 50.7798
 695 1 -7.60079 0.754546 52.1964
 696 1 -7.62154 -0.503487 52.8502
 697 1 -7.61713 -0.566314 54.2668
 698 1 -7.42082 -1.80911 54.9206
 699 1 0.848496 7.59088 29.3128
 700 1 -0.409184 7.62718 29.9666
 701 1 -0.47206 7.62355 31.3832
 702 1 -1.71719 7.44262 32.037
 703 1 -1.7785 7.42821 33.4536
 704 1 -2.97383 7.03546 34.1075
 705 1 -3.03174 7.0107 35.5241
 706 1 -4.14153 6.41787 36.1779
 707 1 -4.19431 6.38351 37.5945
 708 1 -5.18536 5.60833 38.2483
 709 1 -5.23143 5.56539 39.6649
 710 1 -6.0741 4.63105 40.3187
 711 1 -6.11208 4.58081 41.7353
 712 1 -6.78117 3.51526 42.3891
 713 1 -6.80993 3.45923 43.8057
 714 1 -7.28542 2.29433 44.4596
 715 1 -7.30409 2.23418 45.8762
 716 1 -7.57178 1.00478 46.53
 717 1 -7.5798 0.942316 47.9466
 718 1 -7.63166 -0.314818 48.6004
 719 1 -7.62881 -0.377735 50.017
 720 1 -7.46329 -1.625 50.6708
 721 1 -7.44964 -1.68649 52.0874
 722 1 -7.0717 -2.88659 52.7412
 723 1 -7.04766 -2.9448 54.1578
 724 1 -6.46861 -4.06184 54.8117
 725 1 -1.59422 7.46993 29.2038
 726 1 -2.7989 7.10686 29.8576
 727 1 -2.85741 7.08354 31.2743
 728 1 -3.98152 6.51835 31.9281
 729 1 -4.03513 6.4853 33.3447
 730 1 -5.04506 5.73487 33.9985
 731 1 -5.09217 5.69308 35.4151
 732 1 -5.9577 4.77988 36.0689
 733 1 -5.99691 4.73059 37.4855
 734 1 -6.69215 3.68192 38.1393
 735 1 -6.72228 3.62661 39.5559
 736 1 -7.22645 2.47383 40.2098
 737 1 -7.2466 2.41416 41.6264
 738 1 -7.54461 1.19176 42.2802
 739 1 -7.55418 1.12951 43.6968
 740 1 -7.63711 -0.125957 44.3506
 741 1 -7.63582 -0.188925 45.7672
 742 1 -7.5012 -1.43991 46.421
 743 1 -7.48908 -1.50171 47.8376
 744 1 -7.14094 -2.71079 48.4914
 745 1 -7.11834 -2.76958 49.908
 746 1 -6.56709 -3.9006 50.5619
 747 1 -6.53471 -3.95461 51.9785
 748 1 -5.79683 -4.97374 52.6323
 749 1 -5.75563 -5.02137 54.0489
 750 1 -4.8532 -5.89812 54.7027
 751 1 -3.87349 6.58312 29.0949
 752 1 -4.90166 5.85791 29.7487
 753 1 -4.9498 5.81729 31.1653
 754 1 -5.83765 4.92577 31.8191
 755 1 -5.87807 4.87747 33.2357
 756 1 -6.59903 3.84632 33.8895
 757 1 -6.63052 3.79177 35.3061
 758 1 -7.16305 2.65182 35.9599
 759 1 -7.18467 2.59266 37.3765
 760 1 -7.51282 1.37801 38.0304
 761 1 -7.52393 1.31601 39.447
 762 1 -7.63789 0.0629808 40.1008
 763 1 -7.63815 -5.84864e-15 41.5174
 764 1 -7.53452 -1.25393 42.1712
 765 1 -7.52393 -1.31601 43.5878
 766 1 -7.2058 -2.53333 44.2416
 767 1 -7.18467 -2.59266 45.6582
 768 1 -6.66156 -3.73697 46.312
 769 1 -6.63052 -3.79177 47.7286
 770 1 -5.91808 -4.82884 48.3825
 771 1 -5.87807 -4.87747 49.7991
 772 1 -4.9976 -5.77628 50.4529
 773 1 -4.9498 -5.81729 51.8695
 774 1 -3.92764 -6.55096 52.5233
 775 1 -3.87349 -6.58312 53.9399
 776 1 -2.74021 -7.1297 54.5937
 777 1 -5.75563 5.02137 28.9859
 778 1 -6.50188 4.00836 29.6397
 779 1 -6.53471 3.95461 31.0563
 780 1 -7.09526 2.82818 31.7101
 781 1 -7.11834 2.76958 33.1267
 782 1 -7.47644 1.56341 33.7805
 783 1 -7.48908 1.50171 35.1972
 784 1 -7.634 0.25188 35.851
 785 1 -7.63582 0.188925 37.2676
 786 1 -7.56323 -1.06718 37.9214
 787 1 -7.55418 -1.12951 39.338
 788 1 -7.26626 -2.35433 39.9918
 789 1 -7.2466 -2.41416 41.4084
 790 1 -6.75196 -3.57106 42.0622
 791 1 -6.72228 -3.62661 43.4788
 792 1 -6.03571 -4.68098 44.1327
 793 1 -5.99691 -4.73059 45.5493
 794 1 -5.13894 -5.6509 46.2031
 795 1 -5.09217 -5.69308 47.6197
 796 1 -4.08847 -6.4518 48.2735
 797 1 -4.03513 -6.4853 49.6901
 798 1 -2.91572 -7.05974 50.3439
 799 1 -2.85741 -7.08354 51.7605
 800 1 -1.65576 -7.45653 52.4143
 801 1 -1.59422 -7.46993 53.8309
 802 1 -0.34628 -7.6303 54.4848
 803 1 -7.04766 2.9448 28.8769
 804 1 -7.43548 1.74786 29.5307
 805 1 -7.44964 1.68649 30.9473
 806 1 -7.62543 0.440626 31.6012
 807 1 -7.62881 0.377735 33.0178
 808 1 -7.58732 -0.879784 33.6716
 809 1 -7.5798 -0.942316 35.0882
 810 1 -7.32227 -2.17388 35.742
 811 1 -7.30409 -2.23418 37.1586
 812 1 -6.83822 -3.40296 37.8124
 813 1 -6.80993 -3.45923 39.229
 814 1 -6.14965 -4.53026 39.8828
 815 1 -6.11208 -4.58081 41.2994
 816 1 -5.27714 -5.52206 41.9533
 817 1 -5.23143 -5.56539 43.3699
 818 1 -4.2468 -6.3487 44.0237
 819 1 -4.19431 -6.38351 45.4403
 820 1 -3.08945 -6.98546 46.0941
 821 1 -3.03174 -7.0107 47.5107
 822 1 -1.83969 -7.41329 48.1645
 823 1 -1.7785 -7.42821 49.5811
 824 1 -0.534905 -7.6194 50.2349
 825 1 -0.47206 -7.62355 51.6515
 826 1 0.785876 -7.59762 52.3054
 827 1 0.848496 -7.59088 53.722
 828 1 2.08315 -7.3486 54.3758
 829 1 -7.61713 0.566314 28.768
 830 1 -7.60676 -0.691847 29.4218
 831 1 -7.60079 -0.754546 30.8384
 832 1 -7.3738 -1.9921 31.4922
 833 1 -7.35712 -2.05284 32.9088
 834 1 -6.9203 -3.23278 33.5626
 835 1 -6.89341 -3.28973 34.9792
 836 1 -6.25982 -4.37676 35.633
 837 1 -6.22352 -4.42823 37.0496
 838 1 -5.41211 -5.38984 37.7034
 839 1 -5.36749 -5.43429 39.1201
 840 1 -4.40253 -6.24172 39.7739
 841 1 -4.35092 -6.27781 41.1905
 842 1 -3.26128 -6.90691 41.8443
 843 1 -3.20422 -6.93357 43.2609
 844 1 -2.02249 -7.36552 43.9147
 845 1 -1.96169 -7.38195 45.3313
 846 1 -0.723203 -7.60384 45.9851
 847 1 -0.66048 -7.60954 47.4017
 848 1 0.597713 -7.61473 48.0556
 849 1 0.66048 -7.60954 49.4722
 850 1 1.90075 -7.39787 50.126
 851 1 1.96169 -7.38195 51.5426
 852 1 3.14694 -6.95975 52.1964
 853 1 3.20422 -6.93357 53.613
 854 1 4.29901 -6.31347 54.2668
 855 1 -7.40565 -1.87024 28.659
 856 1 -6.99814 -3.06062 29.3128
 857 1 -6.97267 -3.11822 30.7294
 858 1 -6.36616 -4.22059 31.3832
 859 1 -6.33114 -4.27294 32.7998
 860 1 -5.54377 -5.25433 33.4536
 861 1 -5.50026 -5.29986 34.8702
 862 1 -4.55557 -6.13092 35.5241
 863 1 -4.50487 -6.16827 36.9407
 864 1 -3.43112 -6.82413 37.5945
 865 1 -3.37474 -6.85219 39.0111
 866 1 -2.20405 -7.31324 39.6649
 867 1 -2.14367 -7.33117 41.0815
 868 1 -0.911058 -7.58362 41.7353
 869 1 -0.848496 -7.59088 43.1519
 870 1 0.409184 -7.62718 43.8057
 871 1 0.47206 -7.62355 45.2223
 872 1 1.71719 -7.44262 45.8762
 873 1 1.7785 -7.42821 47.2928
 874 1 2.97383 -7.03546 47.9466
 875 1 3.03174 -7.0107 49.3632
 876 1 4.14153 -6.41787 50.017
 877 1 4.19431 -6.38351 51.4336
 878 1 5.18536 -5.60833 52.0874
 879 1 5.23143 -5.56539 53.504
 880 1 6.0741 -4.63105 54.1578
 881 1 -6.43489 -4.11504 28.55
 882 1 -5.67204 -5.1156 29.2038
 883 1 -5.62966 -5.1622 30.6204
 884 1 -4.70582 -6.01636 31.2743
 885 1 -4.65606 -6.05496 32.6909
 886 1 -3.59886 -6.73718 33.3447
 887 1 -3.54319 -6.76662 34.7613
 888 1 -2.38427 -7.25649 35.4151
 889 1 -2.32435 -7.2759 36.8317
 890 1 -1.09836 -7.55877 37.4855
 891 1 -1.03599 -7.56757 38.9021
 892 1 0.220405 -7.63497 39.5559
 893 1 0.283352 -7.63289 40.9725
 894 1 1.53257 -7.48282 41.6264
 895 1 1.59422 -7.46993 43.043
 896 1 2.7989 -7.10686 43.6968
 897 1 2.85741 -7.08354 45.1134
 898 1 3.98152 -6.51835 45.7672
 899 1 4.03513 -6.4853 47.1838
 900 1 5.04506 -5.73487 47.8376
 901 1 5.09217 -5.69308 49.2542
 902 1 5.9577 -4.77988 49.908
 903 1 5.99691 -4.73059 51.3246
 904 1 6.69215 -3.68192 51.9785
 905 1 6.72228 -3.62661 53.3951
 906 1 7.22645 -2.47383 54.0489
 907 1 -4.8044 -5.93794 28.441
 908 1 -3.7644 -6.6461 29.0949
 909 1 -3.70947 -6.67691 30.5115
 910 1 -2.56302 -7.1953 31.1653
 911 1 -2.50361 -7.21619 32.5819
 912 1 -1.28498 -7.52929 33.2357
 913 1 -1.22285 -7.53963 34.6523
 914 1 0.0314907 -7.63809 35.3061
 915 1 0.0944699 -7.63757 36.7227
 916 1 1.34702 -7.51844 37.3765
 917 1 1.40897 -7.50708 38.7931
 918 1 2.62226 -7.17392 39.447
 919 1 2.68133 -7.15205 40.8636
 920 1 3.81908 -6.61483 41.5174
 921 1 3.87349 -6.58312 42.934
 922 1 4.90166 -5.85791 43.5878
 923 1 4.9498 -5.81729 45.0044
 924 1 5.83765 -4.92577 45.6582
 925 1 5.87807 -4.87747 47.0748
 926 1 6.59903 -3.84632 47.7286
 927 1 6.63052 -3.79177 49.1452
 928 1 7.16305 -2.65182 49.7991
 929 1 7.18467 -2.59266 51.2157
 930 1 7.51282 -1.37801 51.8695
 931 1 7.52393 -1.31601 53.2861
 932 1 7.63789 -0.0629808 53.9399
 933 1 -2.68133 -7.15205 28.3321
 934 1 -1.47082 -7.4952 28.9859
 935 1 -1.40897 -7.50708 30.4025
 936 1 -0.157443 -7.63653 31.0563
 937 1 -0.0944699 -7.63757 32.4729
 938 1 1.16064 -7.54946 33.1267
 939 1 1.22285 -7.53963 34.5433
 940 1 2.44402 -7.23658 35.1972
 941 1 2.50361 -7.21619 36.6138