ITEM: TIMESTEP
200
ITEM: NUMBER OF ATOMS
3048
ITEM: BOX BOUNDS pp pp pp
-9.6381499999999996e+00 9.6381499999999996e+00
-9.6380900000000000e+00 9.6380900000000000e+00
2.7242300000000003e-01 1.6634200000000001e+02
ITEM: ATOMS id type x y z
278 1 -7.46925 -1.03364 10.2851
300 1 -7.43324 -0.846705 6.01513
301 1 -7.48768 -0.87085 7.44552
302 1 -7.11287 -2.07419 8.09934
303 1 -7.20133 -2.15446 9.50127
304 1 -6.50442 -3.15565 10.2046
322 1 -7.60326 -0.757316 1.72133
323 1 -7.71083 -0.756307 3.18004
324 1 -7.39974 -1.94674 3.8471
325 1 -7.16756 -1.97777 5.25439
326 1 -6.60729 -3.03675 5.90372
327 1 -6.52663 -3.07643 7.34137
328 1 -5.9945 -4.20128 8.005
329 1 -5.87204 -4.18859 9.41511
330 1 -5.12172 -5.17209 10.0858
347 1 -7.26445 -1.89552 0.995678
348 1 -6.86266 -3.06665 1.7116
349 1 -6.91871 -3.0763 3.11391
350 1 -6.2123 -4.07438 3.78936
351 1 -6.10263 -4.09732 5.19456
352 1 -5.27147 -5.02887 5.90885
353 1 -5.21193 -5.03985 7.27937
354 1 -4.42985 -5.98736 7.94362
355 1 -4.29341 -5.94497 9.33546
356 1 -3.28229 -6.66193 9.96722
373 1 -6.20591 -4.00976 0.897217
374 1 -5.46507 -4.96275 1.56357
375 1 -5.41755 -4.9072 2.96731
376 1 -4.52747 -5.776 3.65564
377 1 -4.50681 -5.84583 5.04931
378 1 -3.52396 -6.57419 5.72253
379 1 -3.45722 -6.59876 7.14767
380 1 -2.38513 -7.12898 7.83654
381 1 -2.21651 -7.07087 9.19779
382 1 -1.01599 -7.42654 9.84942
399 1 -4.68926 -5.76003 0.752714
400 1 -3.72836 -6.61028 1.46313
401 1 -3.60476 -6.47837 2.85634
402 1 -2.55108 -7.2242 3.48799
403 1 -2.54615 -7.24061 4.90714
404 1 -1.36738 -7.52355 5.60315
405 1 -1.2912 -7.45674 7.00375
425 1 -2.69154 -7.16512 0.724737
426 1 -1.46912 -7.56714 1.34802
427 1 -1.37349 -7.4791 2.70229
428 1 -0.183358 -7.59174 3.39717
429 1 -0.188125 -7.59189 4.83273
449 1 -0.296058 -7.6578 0.554334
406 1 -0.03226 -7.66431 7.65474
210 1 -7.48602 -0.275457 20.9911
232 1 -7.49225 -0.0636114 16.7214
233 1 -7.50676 -0.154745 18.127
234 1 -7.44984 -1.38938 18.8315
235 1 -7.36949 -1.43416 20.2388
236 1 -7.04464 -2.6715 20.8721
383 1 -0.993762 -7.42563 11.2324
256 1 -7.44328 -1.14733 14.5478
257 1 -7.3578 -1.21909 15.9412
258 1 -7.05652 -2.43799 16.5782
259 1 -6.94965 -2.43609 17.9936
260 1 -6.35446 -3.56272 18.6433
261 1 -6.41378 -3.68338 20.0619
262 1 -5.68023 -4.70654 20.6964
279 1 -7.42179 -1.05539 11.6934
280 1 -7.07572 -2.22597 12.3502
281 1 -7.02765 -2.23107 13.7693
282 1 -6.47372 -3.37276 14.42
283 1 -6.45384 -3.40467 15.8179
284 1 -5.80223 -4.48399 16.4862
285 1 -5.73833 -4.5469 17.8859
286 1 -4.87045 -5.45563 18.5411
287 1 -4.87235 -5.51155 19.9233
288 1 -4.03839 -6.39095 20.57
305 1 -6.45045 -3.18152 11.6197
306 1 -5.6549 -4.17553 12.2317
307 1 -5.67238 -4.18105 13.6423
308 1 -4.94551 -5.19941 14.2922
309 1 -4.97605 -5.30681 15.7142
310 1 -4.05533 -6.0728 16.3722
311 1 -3.9962 -6.19911 17.7723
312 1 -3.00116 -6.84465 18.4602
313 1 -2.90245 -6.8622 19.8669
314 1 -1.7873 -7.34121 20.5313
331 1 -4.94241 -5.08475 11.4557
332 1 -4.20653 -6.04374 12.1151
333 1 -4.18873 -6.12994 13.5301
334 1 -3.10873 -6.70391 14.2193
335 1 -3.04624 -6.75039 15.6538
336 1 -1.88919 -7.14504 16.3463
337 1 -1.85969 -7.27776 17.722
338 1 -0.621574 -7.50837 18.36
339 1 -0.623944 -7.57456 19.7939
357 1 -3.2422 -6.7289 11.37
358 1 -2.12951 -7.22101 12.0301
359 1 -2.09616 -7.24178 13.4515
360 1 -0.912338 -7.52842 14.1129
361 1 -0.779431 -7.52671 15.5414
188 1 -7.34465 -0.46401 25.2067
189 1 -7.29175 -0.492367 26.592
190 1 -7.18392 -1.74401 27.2733
211 1 -7.43792 -0.420348 22.3513
212 1 -7.34988 -1.61982 23.0435
213 1 -7.16392 -1.59393 24.4444
214 1 -6.88735 -2.80857 25.1122
215 1 -6.79202 -2.81111 26.4841
216 1 -6.38505 -3.97971 27.1938
237 1 -7.0118 -2.74856 22.2644
238 1 -6.51983 -3.90167 22.8989
239 1 -6.40123 -3.89953 24.3362
240 1 -5.75153 -4.96464 24.9947
241 1 -5.68959 -4.98563 26.4044
242 1 -4.88885 -5.96677 27.0108
263 1 -5.67802 -4.73766 22.0837
264 1 -4.84738 -5.63571 22.7759
265 1 -4.83156 -5.75717 24.2225
266 1 -3.83411 -6.46659 24.8579
267 1 -3.84527 -6.48045 26.2555
268 1 -2.69452 -6.97856 26.8885
289 1 -3.93319 -6.31868 21.9683
290 1 -2.84331 -6.88382 22.6718
291 1 -2.79548 -6.93037 24.0892
292 1 -1.56135 -7.07445 24.7265
293 1 -1.55463 -7.29681 26.1466
294 1 -0.322773 -7.46374 26.7908
315 1 -1.69551 -7.27546 21.9402
316 1 -0.499328 -7.33552 22.5826
317 1 -0.445928 -7.34308 23.9401
830 1 -7.42831 -0.6865 29.4452
831 1 -7.46081 -0.743742 30.832
855 1 -7.24301 -1.82117 28.6298
856 1 -6.73648 -2.93453 29.3458
857 1 -6.69764 -2.99838 30.7709
858 1 -6.11172 -4.0825 31.3965
881 1 -6.28839 -4.03546 28.5815
882 1 -5.57355 -5.07112 29.1853
883 1 -5.46666 -5.03636 30.5861
884 1 -4.59999 -5.92902 31.2226
907 1 -4.74333 -5.908 28.4381
908 1 -3.62383 -6.44268 29.078
909 1 -3.55748 -6.50662 30.474
910 1 -2.5068 -7.12315 31.1376
933 1 -2.58682 -6.97483 28.3067
934 1 -1.38644 -7.27952 28.996
935 1 -1.33092 -7.35863 30.4199
936 1 -0.153826 -7.55106 31.0867
957 1 -0.27051 -7.531 28.168
937 1 -0.0506284 -7.53757 32.4977
786 1 -7.37925 -1.01719 37.9219
787 1 -7.38369 -1.09261 39.3004
788 1 -7.08077 -2.2739 39.9953
789 1 -7.15453 -2.34592 41.3938
808 1 -7.38532 -0.824081 33.6858
809 1 -7.32775 -0.864843 35.0643
810 1 -7.14109 -2.10165 35.7397
811 1 -7.12471 -2.1371 37.1366
812 1 -6.71139 -3.33841 37.7696
813 1 -6.60836 -3.36813 39.2123
814 1 -5.94423 -4.36749 39.9147
815 1 -6.03853 -4.45802 41.2873
832 1 -7.04894 -1.91476 31.5444
833 1 -7.00492 -1.92138 32.9469
834 1 -6.63033 -3.10595 33.6016
835 1 -6.59801 -3.20472 34.9808
836 1 -5.99497 -4.23127 35.6569
837 1 -5.97613 -4.31236 37.0187
838 1 -5.21341 -5.20425 37.7103
839 1 -5.16074 -5.19507 39.1134
840 1 -4.19138 -5.9957 39.787
841 1 -4.14701 -6.0051 41.1832
859 1 -6.10569 -4.1682 32.7918
860 1 -5.34915 -5.11534 33.4576
861 1 -5.3256 -5.15591 34.8639
862 1 -4.39891 -5.99112 35.5147
863 1 -4.40878 -6.08831 36.9702
864 1 -3.27173 -6.65075 37.5874
865 1 -3.25628 -6.70282 39.005
866 1 -2.14981 -7.19314 39.6584
867 1 -1.92691 -7.10064 41.0922
868 1 -0.779962 -7.3534 41.7533
885 1 -4.56033 -5.93908 32.6455
886 1 -3.59151 -6.66567 33.3145
887 1 -3.43655 -6.6205 34.7256
888 1 -2.28942 -6.98855 35.4338
889 1 -2.21779 -7.13972 36.836
890 1 -1.04265 -7.36135 37.4551
891 1 -0.995241 -7.338 38.8775
911 1 -2.40322 -7.01107 32.5715
912 1 -1.22386 -7.35161 33.2334
913 1 -1.14799 -7.41143 34.6861
718 1 -7.61921 -0.245756 48.6015
719 1 -7.5568 -0.350993 49.9944
720 1 -7.47788 -1.55848 50.591
721 1 -7.37239 -1.6062 52.0147
740 1 -7.55136 -0.12651 44.3315
741 1 -7.59421 -0.139389 45.7401
742 1 -7.47943 -1.38145 46.4001
743 1 -7.55205 -1.4295 47.8071
744 1 -7.10017 -2.63488 48.3948
745 1 -7.1539 -2.70078 49.8143
746 1 -6.65701 -3.86189 50.4536
747 1 -6.61489 -3.90636 51.8992
764 1 -7.31161 -1.19486 42.1376
765 1 -7.37355 -1.29445 43.5638
766 1 -7.12678 -2.46462 44.2568
767 1 -7.10464 -2.51573 45.5762
768 1 -6.50346 -3.56903 46.2504
769 1 -6.48622 -3.6221 47.6326
770 1 -5.83848 -4.65657 48.3325
771 1 -5.7818 -4.68933 49.758
772 1 -4.89036 -5.52876 50.403
773 1 -4.83029 -5.50203 51.823
790 1 -6.65987 -3.46822 42.0708
791 1 -6.59501 -3.5024 43.4648
792 1 -5.91917 -4.53084 44.0952
793 1 -5.77751 -4.51917 45.458
794 1 -4.99898 -5.44914 46.1673
795 1 -4.99973 -5.48781 47.5567
796 1 -3.93647 -6.15235 48.1839
797 1 -3.91967 -6.14335 49.6192
798 1 -2.88906 -6.76698 50.2813
799 1 -2.76962 -6.70795 51.7103
816 1 -5.07124 -5.25204 41.9431
817 1 -5.09425 -5.34245 43.3295
818 1 -4.16074 -6.12191 44.0303
819 1 -4.05281 -6.13648 45.4003
820 1 -2.95982 -6.73785 46.0696
821 1 -2.93148 -6.76015 47.4723
822 1 -1.78954 -7.13369 48.1766
823 1 -1.73895 -7.16336 49.6025
824 1 -0.552136 -7.45749 50.2278
825 1 -0.473495 -7.43053 51.6515
842 1 -3.08435 -6.62916 41.8538
843 1 -3.09013 -6.67096 43.2846
844 1 -1.90793 -7.08911 43.9316
845 1 -1.82148 -7.03426 45.332
846 1 -0.672312 -7.33568 46.0277
847 1 -0.612105 -7.23964 47.3975
869 1 -0.746993 -7.3385 43.1766
696 1 -7.3781 -0.463408 52.7627
697 1 -7.52714 -0.517431 54.2258
698 1 -7.49582 -1.79026 54.8666
722 1 -7.11312 -2.82202 52.6459
723 1 -7.14286 -2.86985 54.0567
724 1 -6.51966 -3.97915 54.7104
748 1 -5.81579 -4.83037 52.5409
749 1 -5.7 -4.82384 53.9747
750 1 -4.89102 -5.74407 54.683
774 1 -3.79673 -6.15416 52.5135
775 1 -3.78653 -6.17294 53.9507
776 1 -2.77864 -6.89672 54.6019
800 1 -1.64428 -7.18962 52.4122
801 1 -1.63824 -7.17778 53.8572
802 1 -0.379517 -7.3366 54.4646
1316 1 -7.38141 -0.832271 61.3872
1338 1 -7.73223 -0.67408 57.0854
1339 1 -7.58854 -0.728705 58.5059
1340 1 -7.36454 -1.95736 59.1781
1341 1 -7.2233 -1.94553 60.5941
1342 1 -6.75123 -3.08982 61.2076
1363 1 -7.50943 -1.80269 56.3129
1364 1 -6.94116 -2.93426 56.9404
1365 1 -6.88811 -2.96394 58.3437
1366 1 -6.2901 -4.03329 59.0096
1367 1 -6.34415 -4.1557 60.4372
1368 1 -5.44687 -5.04385 61.0445
1369 1 -5.43998 -5.14367 62.4493
1389 1 -6.39373 -3.975 56.1583
1390 1 -5.61707 -4.9355 56.857
1391 1 -5.52663 -4.8956 58.2391
1392 1 -4.60335 -5.6976 58.9352
1393 1 -4.58286 -5.85235 60.2972
1394 1 -3.51091 -6.47274 60.9699
1395 1 -3.54508 -6.58993 62.3493
1415 1 -4.83885 -5.7876 56.09
1416 1 -3.7759 -6.43407 56.7414
1417 1 -3.66268 -6.43073 58.1546
1418 1 -2.54456 -6.95384 58.8175
1419 1 -2.46965 -6.95205 60.2027
1420 1 -1.29968 -7.28738 60.8681
1421 1 -1.27809 -7.26249 62.2706
1441 1 -2.74772 -6.8486 55.9547
1442 1 -1.53585 -7.30225 56.5928
1443 1 -1.43353 -7.22921 58.0054
1444 1 -0.18774 -7.45868 58.6934
1445 1 -0.175554 -7.46683 60.0718
1465 1 -0.320127 -7.30278 55.8706
1248 1 -7.57107 -0.166607 72.0056
1422 1 -0.0612461 -7.33694 62.968
1272 1 -7.3739 -1.23732 69.8412
1273 1 -7.31559 -1.34341 71.2313
1274 1 -7.08839 -2.55378 71.8639
1294 1 -7.44985 -1.03689 65.5804
1295 1 -7.34263 -1.09684 66.9905
1296 1 -7.05719 -2.31926 67.6239
1297 1 -6.98537 -2.3443 69.0781
1298 1 -6.54085 -3.49494 69.717
1299 1 -6.45813 -3.55433 71.1234
1300 1 -5.83918 -4.56011 71.8207
1317 1 -7.51561 -0.847524 62.7841
1318 1 -7.26046 -2.07268 63.3999
1319 1 -7.21914 -2.17927 64.7953
1320 1 -6.73551 -3.35021 65.4369
1321 1 -6.6207 -3.35522 66.8594
1322 1 -5.97021 -4.35891 67.5448
1323 1 -6.03871 -4.57318 68.957
1324 1 -5.20262 -5.4796 69.5821
1325 1 -5.15774 -5.50607 71.0269
1326 1 -4.2434 -6.32691 71.6849
1343 1 -6.7906 -3.15092 62.6377
1344 1 -6.07405 -4.17748 63.2717
1345 1 -5.99008 -4.24729 64.6829
1346 1 -5.25239 -5.17993 65.3581
1347 1 -5.24918 -5.27843 66.7668
1348 1 -4.23022 -6.03081 67.4737
1349 1 -4.22173 -6.12267 68.8637
1350 1 -3.25167 -6.82936 69.5143
1351 1 -3.17135 -6.86294 70.931
1352 1 -1.98255 -7.28833 71.5864
1370 1 -4.52192 -5.95656 63.1408
1371 1 -4.47282 -6.03913 64.5799
1372 1 -3.39078 -6.65733 65.2773
1373 1 -3.31184 -6.73646 66.6674
1374 1 -2.15184 -7.22928 67.2824
1375 1 -2.16343 -7.28332 68.7441
1376 1 -0.926424 -7.49827 69.3581
1377 1 -0.856461 -7.51468 70.7787
1396 1 -2.4125 -7.11067 63.0725
1397 1 -2.35281 -7.17617 64.4752
1398 1 -1.08771 -7.30968 65.1034
1399 1 -1.03137 -7.4521 66.4798
1204 1 -7.4199 -0.511298 80.4704
1205 1 -7.52708 -0.604565 81.9105
1206 1 -7.43613 -1.82214 82.5896
1226 1 -7.49775 -0.367393 76.2085
1227 1 -7.56814 -0.437603 77.66
1228 1 -7.45158 -1.69122 78.3022
1229 1 -7.46372 -1.69262 79.7159
1230 1 -7.05685 -2.84885 80.3742
1231 1 -7.0295 -2.89713 81.8144
1232 1 -6.393 -3.92829 82.4704
1249 1 -7.36106 -0.287316 73.3798
1250 1 -7.30697 -1.48271 74.0793
1251 1 -7.27797 -1.55537 75.5051
1252 1 -7.02558 -2.76474 76.1416
1253 1 -7.0557 -2.80281 77.5824
1254 1 -6.54114 -3.88428 78.2725
1255 1 -6.49786 -3.89627 79.6699
1256 1 -5.67168 -4.8031 80.3213
1257 1 -5.65519 -4.82773 81.7185
1258 1 -4.73388 -5.6324 82.3974
1275 1 -7.03664 -2.61509 73.2879
1276 1 -6.4806 -3.71937 73.9306
1277 1 -6.56275 -3.78265 75.3172
1278 1 -6.03368 -4.86131 76.0205
1279 1 -5.886 -4.81213 77.4632
1280 1 -4.99529 -5.65842 78.1072
1281 1 -4.81563 -5.56408 79.5158
1282 1 -3.84317 -6.2989 80.1939
1283 1 -3.81634 -6.27099 81.6258
1284 1 -2.63383 -6.74187 82.2654
1301 1 -5.80487 -4.65134 73.2022
1302 1 -5.04575 -5.56961 73.866
1303 1 -5.1258 -5.65498 75.2883
1304 1 -4.0783 -6.30026 75.9359
1305 1 -3.99076 -6.27575 77.3514
1306 1 -2.87899 -6.81022 78.0296
1307 1 -2.83883 -6.83336 79.4592
1308 1 -1.5815 -7.16574 80.091
1309 1 -1.5465 -7.04413 81.5157
1310 1 -0.360387 -7.15538 82.1756
1327 1 -4.21999 -6.4334 73.1396
1328 1 -3.07538 -6.90674 73.7737
1329 1 -3.02728 -6.85021 75.206
1330 1 -1.85238 -7.22781 75.8733
1331 1 -1.77471 -7.18474 77.303
1332 1 -0.530679 -7.12487 77.9201
1333 1 -0.470749 -7.28786 79.3131
1353 1 -1.97413 -7.34899 73.0008
1354 1 -0.731032 -7.46991 73.6493
1355 1 -0.706808 -7.4317 75.0995
1802 1 -7.31194 -0.969188 93.2214
1824 1 -7.5201 -0.823042 88.9884
1825 1 -7.48433 -0.843565 90.4099
1826 1 -7.27648 -2.07599 91.0691
1827 1 -7.14171 -2.1191 92.49
1828 1 -6.6449 -3.26784 93.0829
1846 1 -7.52108 -0.604514 84.7876
1847 1 -7.5183 -0.650384 86.198
1848 1 -7.27261 -1.87876 86.8271
1849 1 -7.23926 -1.96349 88.2035
1850 1 -6.73534 -3.05901 88.8821
1851 1 -6.75998 -3.14262 90.2906
1852 1 -6.09813 -4.1716 90.9179
1853 1 -6.08061 -4.29391 92.336
1854 1 -5.27735 -5.22881 93.0148
1871 1 -7.34203 -1.80691 84.0316
1872 1 -6.97553 -3.00954 84.7043
1873 1 -6.7876 -2.97784 86.1073
1874 1 -6.11313 -3.98414 86.7646
1875 1 -6.01009 -3.99521 88.1675
1876 1 -5.23618 -4.91837 88.8343
1877 1 -5.28181 -5.03996 90.222
1878 1 -4.41079 -5.91347 90.8501
1879 1 -4.4138 -6.02092 92.2549
1880 1 -3.35619 -6.60912 92.9332
1897 1 -6.43807 -4.06823 83.8941
1898 1 -5.5838 -4.94015 84.5668
1899 1 -5.45427 -4.9426 85.9642
1900 1 -4.50754 -5.71052 86.6112
1901 1 -4.40661 -5.70144 88.0552
1902 1 -3.46708 -6.48906 88.7038
1903 1 -3.45493 -6.54737 90.0862
1904 1 -2.31645 -6.95736 90.769
1905 1 -2.26878 -7.11157 92.1794
1906 1 -1.10915 -7.41746 92.8152
1923 1 -4.75424 -5.78054 83.8155
1924 1 -3.63574 -6.29999 84.3933
1925 1 -3.54448 -6.38318 85.8253
1926 1 -2.45355 -6.8844 86.5001
1927 1 -2.44379 -7.01793 87.9245
1928 1 -1.25567 -7.37058 88.5908
1929 1 -1.18476 -7.33159 90.0067
1949 1 -2.51185 -6.62842 83.6547
1950 1 -1.41132 -6.99251 84.3529
1951 1 -1.34511 -7.16001 85.7342
1952 1 -0.124795 -7.3332 86.4088
1953 1 -0.0907712 -7.49322 87.8397
1973 1 -0.22263 -7.13265 83.5898
1734 1 -7.51875 -0.18188 103.91
1756 1 -7.33147 -0.0103445 99.7008
1757 1 -7.34331 -0.0266187 101.077
1758 1 -7.32503 -1.31724 101.715
1759 1 -7.22536 -1.31665 103.126
1760 1 -6.76762 -2.42394 103.767
1907 1 -0.972622 -7.51247 94.1631
1780 1 -7.35286 -1.15952 97.5139
1781 1 -7.29935 -1.16516 98.9291
1782 1 -7.01851 -2.40106 99.5248
1783 1 -7.01354 -2.45064 100.932
1784 1 -6.29775 -3.45276 101.553
1785 1 -6.28253 -3.48644 102.983
1786 1 -5.77189 -4.58538 103.685
1803 1 -7.35285 -0.982749 94.6229
1804 1 -6.94537 -2.16168 95.2585
1805 1 -6.98095 -2.25598 96.6702
1806 1 -6.5537 -3.41666 97.3218
1807 1 -6.50571 -3.41628 98.7325
1808 1 -5.70534 -4.35513 99.4075
1809 1 -5.64512 -4.41496 100.804
1810 1 -4.84757 -5.32775 101.467
1811 1 -4.91882 -5.4105 102.932
1812 1 -3.92379 -6.10004 103.595
1829 1 -6.64455 -3.29467 94.4913
1830 1 -5.91456 -4.32593 95.1812
1831 1 -5.8876 -4.34823 96.5926
1832 1 -5.00714 -5.21688 97.2571
1833 1 -5.04499 -5.31989 98.6356
1834 1 -4.12208 -6.18671 99.3139
1835 1 -4.04675 -6.19128 100.701
1836 1 -3.04725 -6.84037 101.403
1837 1 -2.95462 -6.77545 102.831
1838 1 -1.73695 -7.13329 103.471
1855 1 -5.20845 -5.25949 94.444
1856 1 -4.23426 -6.00356 95.1007
1857 1 -4.18105 -6.00401 96.4888
1858 1 -3.18443 -6.79469 97.1436
1859 1 -3.19125 -6.91688 98.5554
1860 1 -2.01751 -7.36612 99.2401
1861 1 -1.91651 -7.28784 100.668
1862 1 -0.727831 -7.48547 101.319
1863 1 -0.615028 -7.40636 102.72
1881 1 -3.25306 -6.65125 94.3056
1882 1 -2.09692 -7.15638 94.9321
1883 1 -2.10797 -7.21775 96.341
1884 1 -0.893062 -7.48894 97.0383
1885 1 -0.828774 -7.35709 98.4674
1712 1 -7.43669 -0.380685 108.207
1713 1 -7.47273 -0.473033 109.598
1714 1 -7.36218 -1.69569 110.312
1735 1 -7.47746 -0.21898 105.357
1736 1 -7.14123 -1.4171 105.984
1737 1 -7.24867 -1.56037 107.419
1738 1 -6.91524 -2.6954 108.106
1739 1 -6.97872 -2.76178 109.521
1740 1 -6.39823 -3.85926 110.141
1761 1 -6.78134 -2.53364 105.217
1762 1 -6.30848 -3.63972 105.893
1763 1 -6.36383 -3.74323 107.327
1764 1 -5.598 -4.72511 107.967
1765 1 -5.64643 -4.76073 109.363
1766 1 -4.72239 -5.6032 110.026
1787 1 -5.69801 -4.62286 105.094
1788 1 -4.90114 -5.50471 105.755
1789 1 -4.80509 -5.58318 107.155
1790 1 -3.78969 -6.23235 107.835
1791 1 -3.71737 -6.21927 109.24
1792 1 -2.62723 -6.8552 109.888
1813 1 -3.85541 -6.0061 105.012
1814 1 -2.7822 -6.71192 105.655
1815 1 -2.66056 -6.60737 107.071
1816 1 -1.49915 -7.14269 107.706
1817 1 -1.51383 -7.2288 109.103
1818 1 -0.331974 -7.4409 109.841
1839 1 -1.68932 -7.24228 104.884
1840 1 -0.450252 -7.57051 105.541
1841 1 -0.386967 -7.47248 106.926
2354 1 -7.43457 -0.595877 112.509
2355 1 -7.35687 -0.726725 113.898
2379 1 -7.17231 -1.72308 111.694
2380 1 -6.86033 -2.8994 112.339
2381 1 -6.81847 -3.06378 113.748
2382 1 -6.22519 -4.1297 114.414
2405 1 -6.28105 -3.92515 111.538
2406 1 -5.56181 -4.94118 112.213
2407 1 -5.55752 -5.06046 113.563
2408 1 -4.59687 -5.84483 114.247
2431 1 -4.62607 -5.65215 111.438
2432 1 -3.62373 -6.40221 112.093
2433 1 -3.58 -6.36809 113.479
2434 1 -2.43264 -6.87828 114.16
2457 1 -2.58634 -6.94364 111.282
2458 1 -1.43497 -7.43504 111.999
2459 1 -1.3137 -7.31466 113.392
2460 1 -0.126687 -7.5649 114.064
2481 1 -0.25836 -7.58002 111.23
2287 1 -7.29721 -0.00458949 124.486
2310 1 -7.12111 -1.0097 120.919
2311 1 -7.09354 -1.06053 122.315
2312 1 -7.01574 -2.27248 123.028
2313 1 -7.01021 -2.32996 124.394
2332 1 -7.44101 -0.908108 116.697
2333 1 -7.30193 -0.956923 118.075
2334 1 -7.06693 -2.15251 118.733
2335 1 -6.9594 -2.15249 120.142
2336 1 -6.55246 -3.34776 120.853
2337 1 -6.47886 -3.36445 122.293
2338 1 -6.02328 -4.49838 122.936
2339 1 -5.95412 -4.44357 124.325
2356 1 -7.1168 -1.94364 114.511
2357 1 -7.13041 -2.04078 115.9
2358 1 -6.80297 -3.23606 116.576
2359 1 -6.71156 -3.26819 118.007
2360 1 -6.10656 -4.36312 118.671
2361 1 -6.05307 -4.42047 120.075
2362 1 -5.29892 -5.46171 120.738
2363 1 -5.26132 -5.38371 122.143
2364 1 -4.38195 -6.20203 122.787
2365 1 -4.3163 -6.26098 124.179
2383 1 -6.15661 -4.20367 115.809
2384 1 -5.52905 -5.22333 116.459
2385 1 -5.38709 -5.22327 117.858
2386 1 -4.40054 -5.99544 118.526
2387 1 -4.35341 -6.06443 119.906
2388 1 -3.40204 -6.82393 120.59
2389 1 -3.4121 -6.8246 122.019
2390 1 -2.1893 -7.14557 122.663
2391 1 -2.13276 -7.32262 124.046
2392 1 -0.897332 -7.66361 124.728
2409 1 -4.65858 -6.00528 115.639
2410 1 -3.49371 -6.51252 116.31
2411 1 -3.47093 -6.66837 117.727
2412 1 -2.34036 -7.22294 118.383
2413 1 -2.30146 -7.25391 119.808
2414 1 -1.05897 -7.4486 120.491
2415 1 -1.03983 -7.38128 121.893
2435 1 -2.43121 -6.99395 115.57
2436 1 -1.26476 -7.24529 116.237
2437 1 -1.19714 -7.45369 117.633
2461 1 -0.119844 -7.44894 115.494
2242 1 -7.69097 -0.356444 131.622
2243 1 -7.69196 -0.365406 133.012
2244 1 -7.37541 -1.5832 133.654
2245 1 -7.45585 -1.66428 135.076
2264 1 -7.51274 -0.14866 127.337
2265 1 -7.55035 -0.16572 128.754
2266 1 -7.4616 -1.39425 129.426
2267 1 -7.46757 -1.45179 130.836
2268 1 -7.00573 -2.61807 131.434
2269 1 -7.01344 -2.66205 132.826
2270 1 -6.48528 -3.78055 133.498
2271 1 -6.35899 -3.84312 134.93
2288 1 -7.28278 -1.23122 125.167
2289 1 -7.34063 -1.25421 126.55
2290 1 -7.09064 -2.4145 127.218
2291 1 -7.11714 -2.47549 128.607
2292 1 -6.57899 -3.57363 129.251
2293 1 -6.47245 -3.62298 130.659
2294 1 -5.8244 -4.63231 131.35
2295 1 -5.68319 -4.64919 132.755
2296 1 -4.91125 -5.60076 133.452
2297 1 -4.86748 -5.6245 134.859
2314 1 -6.55798 -3.42703 125.036
2315 1 -6.53727 -3.50007 126.459
2316 1 -5.92239 -4.57289 127.087
2317 1 -5.88308 -4.56222 128.541
2318 1 -5.07337 -5.5295 129.198
2319 1 -5.01986 -5.53248 130.612
2320 1 -4.00644 -6.28277 131.265
2321 1 -3.94481 -6.21296 132.672
2322 1 -2.83263 -6.79142 133.378
2323 1 -2.82335 -6.90482 134.763
2340 1 -5.1295 -5.38129 124.95
2341 1 -5.01743 -5.3571 126.334
2342 1 -4.10159 -6.17056 126.982
2343 1 -4.08629 -6.22408 128.403
2344 1 -3.09307 -6.93588 129.07
2345 1 -3.03655 -6.99622 130.484
2346 1 -1.82381 -7.31593 131.152
2347 1 -1.74218 -7.24112 132.566
2348 1 -0.544371 -7.56869 133.267
2349 1 -0.509672 -7.51257 134.671
2366 1 -3.19053 -6.78613 124.854
2367 1 -3.08022 -6.78948 126.227
2368 1 -1.96657 -7.30684 126.847
2369 1 -1.97119 -7.33072 128.252
2370 1 -0.732152 -7.46792 128.946
2371 1 -0.677365 -7.50008 130.361
2393 1 -0.824598 -7.62148 126.128
2220 1 -7.56141 -0.465042 135.838
2221 1 -7.66539 -0.639458 137.265
2222 1 -7.21993 -1.77272 137.942
2246 1 -6.94921 -2.82109 135.746
2247 1 -6.94762 -2.89504 137.143
2248 1 -6.36957 -3.96914 137.812
2272 1 -5.75617 -4.91069 135.599
2273 1 -5.7138 -4.95072 137.006
2274 1 -4.83301 -5.84173 137.679
2298 1 -3.87958 -6.40316 135.509
2299 1 -3.85892 -6.59169 136.949
2300 1 -2.72764 -7.00516 137.627
2324 1 -1.69274 -7.31075 135.465
2325 1 -1.62845 -7.40051 136.833
2326 1 -0.386378 -7.3522 137.485
2840 1 -7.47581 -0.930734 144.4
2862 1 -7.48493 -0.711105 140.125
2863 1 -7.40653 -0.731193 141.545
2864 1 -7.29207 -1.98301 142.209
2865 1 -7.25769 -2.11994 143.628
2866 1 -7.01969 -3.33736 144.279
2887 1 -7.13392 -1.85226 139.381
2888 1 -6.90781 -3.03746 140.036
2889 1 -6.87208 -3.07923 141.45
2890 1 -6.29927 -4.18593 142.067
2891 1 -6.37749 -4.31045 143.485
2892 1 -5.56806 -5.23573 144.174
2893 1 -5.40065 -5.21226 145.575
2913 1 -6.24416 -3.97874 139.217
2914 1 -5.51645 -4.9483 139.885
2915 1 -5.56843 -5.09784 141.327
2916 1 -4.64642 -5.89614 141.964
2917 1 -4.65359 -5.98477 143.378
2918 1 -3.53655 -6.56874 143.994
2919 1 -3.40646 -6.43461 145.416
2939 1 -4.68281 -5.79472 139.1
2940 1 -3.72646 -6.51064 139.762
2941 1 -3.64339 -6.44336 141.147
2942 1 -2.54155 -6.93914 141.818
2943 1 -2.45753 -6.88784 143.208
2944 1 -1.25428 -7.23155 143.876
2945 1 -1.14888 -7.26269 145.278
2965 1 -2.67163 -6.9797 139.002
2966 1 -1.44734 -7.14161 139.618
2967 1 -1.36278 -7.06852 141.036
2968 1 -0.143695 -7.408 141.715
2969 1 -0.0787544 -7.43716 143.141
2989 1 -0.289659 -7.24841 138.881
2772 1 -7.1557 -0.201449 155.082
2795 1 -7.31469 -0.174529 152.243
2796 1 -7.29458 -1.33834 152.938
2797 1 -7.20152 -1.35585 154.343
2798 1 -6.89332 -2.5325 155.034
2818 1 -7.47182 -1.10978 148.677
2819 1 -7.54487 -1.18862 150.087
2820 1 -7.2638 -2.44908 150.757
2821 1 -7.14647 -2.45984 152.145
2822 1 -6.66769 -3.60622 152.809
2823 1 -6.48228 -3.60876 154.225
2824 1 -5.76506 -4.60515 154.87
2841 1 -7.52349 -1.04766 145.817
2842 1 -7.2658 -2.23312 146.532
2843 1 -7.30442 -2.25619 147.946
2844 1 -6.68706 -3.31652 148.591
2845 1 -6.71409 -3.44245 149.969
2846 1 -6.13952 -4.54819 150.576
2847 1 -6.01107 -4.59692 152.01
2848 1 -5.12742 -5.45637 152.671
2849 1 -4.99423 -5.43883 154.052
2850 1 -3.9348 -6.08269 154.714
2867 1 -7.00837 -3.37825 145.741
2868 1 -6.21277 -4.37037 146.384
2869 1 -6.15486 -4.36704 147.807
2870 1 -5.29228 -5.26688 148.39
2871 1 -5.25115 -5.346 149.809
2872 1 -4.31196 -6.12046 150.478
2873 1 -4.25444 -6.21059 151.889
2874 1 -3.10992 -6.67678 152.534
2875 1 -3.03702 -6.80102 153.936
2876 1 -1.89523 -7.23108 154.616
2894 1 -4.39765 -5.88517 146.22
2895 1 -4.31506 -5.97303 147.659
2896 1 -3.1944 -6.46262 148.311
2897 1 -3.26791 -6.68011 149.717
2898 1 -2.02647 -6.95757 150.394
2899 1 -2.03036 -7.05811 151.765
2900 1 -0.838013 -7.42849 152.457
2901 1 -0.743898 -7.51808 153.879
2920 1 -2.26586 -6.9219 146.054
2921 1 -2.13497 -6.8907 147.486
2922 1 -0.937562 -7.11544 148.202
2923 1 -0.984301 -7.33648 149.599
2946 1 -0.0152292 -7.518 146.022
2794 1 -7.43373 -0.0277223 150.834
2728 1 -7.35115 -0.560841 163.56
2729 1 -7.37914 -0.621298 164.972
2730 1 -7.20355 -1.86531 165.653
2750 1 -7.14546 -0.379385 159.327
2751 1 -7.14792 -0.456988 160.731
2752 1 -7.07684 -1.69537 161.372
2753 1 -7.11643 -1.72065 162.836
2754 1 -6.83518 -2.92084 163.498
2755 1 -6.81647 -2.94143 164.909
2756 1 -6.15654 -3.99055 165.537
2773 1 -7.28712 -0.264795 156.481
2774 1 -7.05177 -1.46137 157.21
2775 1 -6.97395 -1.5261 158.594
2776 1 -6.81043 -2.75342 159.237
2777 1 -6.78299 -2.82061 160.632
2778 1 -6.3749 -3.97099 161.289
2779 1 -6.36222 -3.98445 162.695
2780 1 -5.62195 -4.95447 163.396
2781 1 -5.61575 -4.98838 164.771
2782 1 -4.76967 -5.89426 165.398
2799 1 -6.882 -2.60205 156.428
2800 1 -6.42808 -3.77432 157.082
2801 1 -6.40863 -3.85163 158.467
2802 1 -5.71591 -4.88412 159.125
2803 1 -5.71094 -4.92023 160.492
2804 1 -4.80167 -5.69823 161.148
2805 1 -4.76941 -5.73555 162.602
2806 1 -3.81017 -6.55965 163.269
2807 1 -3.86716 -6.71532 164.671
2808 1 -2.70142 -7.14927 165.387
2825 1 -5.79762 -4.72395 156.268
2826 1 -4.93516 -5.6288 156.912
2827 1 -4.95042 -5.75281 158.315
2828 1 -3.98927 -6.54247 158.997
2829 1 -3.88519 -6.42572 160.42
2830 1 -2.80744 -6.98648 161.127
2831 1 -2.73861 -6.98849 162.475
2832 1 -1.585 -7.33368 163.173
2833 1 -1.58153 -7.38573 164.591
2834 1 -0.349671 -7.58102 165.245
2851 1 -3.97444 -6.24981 156.085
2852 1 -2.98315 -6.9305 156.791
2853 1 -2.94357 -7.04284 158.215
2854 1 -1.79975 -7.47936 158.909
2855 1 -1.696 -7.33678 160.306
2856 1 -0.499649 -7.61632 160.959
2857 1 -0.459749 -7.5084 162.372
2877 1 -1.7884 -7.1811 156.032
2878 1 -0.588927 -7.46869 156.719
2879 1 -0.602547 -7.60465 158.099
170 1 -0.676324 7.57756 6.54737
171 1 -0.749276 7.5133 7.95701
172 1 -1.96193 7.16836 8.65025
173 1 -1.98304 7.15275 10.0453
192 1 -0.404797 7.36228 2.25698
193 1 -0.479371 7.29182 3.65711
194 1 -1.70908 7.26853 4.36538
195 1 -1.82516 7.39355 5.79585
196 1 -2.95743 6.86264 6.48341
197 1 -3.02304 6.80322 7.87897
198 1 -4.0745 6.12729 8.45086
199 1 -4.2285 6.24183 9.85481
200 1 -5.19877 5.45835 10.5568
217 1 -1.54597 7.12996 1.511
218 1 -2.73804 6.84948 2.1988
219 1 -2.79821 6.79935 3.58455
220 1 -3.84857 6.19058 4.23472
221 1 -3.98984 6.3018 5.6529
222 1 -4.95084 5.49179 6.31594
223 1 -5.05041 5.45269 7.72618
224 1 -5.99869 4.61626 8.35386
225 1 -6.05968 4.65868 9.78181
226 1 -6.76746 3.6304 10.4594
243 1 -3.84931 6.3333 1.43393
244 1 -4.76525 5.59492 2.09144
245 1 -4.90532 5.60456 3.46619
246 1 -5.77553 4.74529 4.16205
247 1 -5.81377 4.71007 5.51064
248 1 -6.56564 3.73774 6.19944
249 1 -6.65896 3.64052 7.58842
250 1 -7.18822 2.56751 8.28448
251 1 -7.25336 2.54349 9.69971
252 1 -7.50563 1.35164 10.4457
269 1 -5.61691 4.84252 1.352
270 1 -6.41312 3.87141 1.9817
271 1 -6.5305 3.86062 3.34931
272 1 -7.12602 2.76711 4.03214
273 1 -7.11979 2.72225 5.43255
274 1 -7.4506 1.48646 6.07746
275 1 -7.49722 1.44783 7.53051
276 1 -7.61641 0.275928 8.25082
277 1 -7.77507 0.197536 9.66541
295 1 -6.87826 2.78239 1.22182
296 1 -7.39748 1.61615 1.80527
297 1 -7.45953 1.62263 3.2311
298 1 -7.64942 0.418519 3.90862
299 1 -7.56068 0.331011 5.30324
321 1 -7.4188 0.44339 1.06815
174 1 -3.13422 6.69766 10.6284
104 1 -1.19664 7.39456 19.3063
105 1 -1.21947 7.33574 20.717
126 1 -1.0596 7.50583 15.019
127 1 -1.06425 7.48239 16.4255
128 1 -2.30162 7.15939 17.0922
129 1 -2.32647 7.07602 18.5421
130 1 -3.50964 6.71349 19.1153
131 1 -3.55451 6.74128 20.5641
148 1 -0.804473 7.36393 10.7757
149 1 -0.894131 7.44029 12.2313
150 1 -2.10878 7.21626 12.8132
151 1 -2.19418 7.34386 14.2205
152 1 -3.32767 6.84684 14.847
153 1 -3.39657 6.75376 16.2879
154 1 -4.40533 6.09416 16.9567
155 1 -4.48598 6.0621 18.3755
156 1 -5.44529 5.32366 19.0614
157 1 -5.46446 5.18814 20.4773
255 1 -7.4788 0.0907689 13.8973
175 1 -3.20274 6.80384 12.0281
176 1 -4.27224 6.13648 12.6897
177 1 -4.33547 6.16367 14.0874
178 1 -5.26861 5.39886 14.7698
179 1 -5.33457 5.36668 16.2083
180 1 -6.14257 4.46221 16.9062
181 1 -6.12455 4.35888 18.3114
182 1 -6.74037 3.32404 18.9981
183 1 -6.78475 3.25056 20.3889
254 1 -7.46168 0.11902 12.483
201 1 -5.23951 5.44017 11.9414
202 1 -6.01557 4.51374 12.6038
203 1 -6.05562 4.51883 14.0083
204 1 -6.75856 3.54669 14.7874
205 1 -6.75886 3.49937 16.1976
206 1 -7.21952 2.32806 16.8357
207 1 -7.05409 2.21547 18.2538
208 1 -7.32411 1.00404 18.8918
209 1 -7.36797 0.958062 20.3269
227 1 -6.78894 3.61193 11.8691
228 1 -7.23469 2.51775 12.5965
229 1 -7.22286 2.45603 13.9982
230 1 -7.32266 1.22851 14.6863
231 1 -7.39775 1.18007 16.0519
253 1 -7.40912 1.35333 11.8361
58 1 -0.181791 7.395 25.7356
59 1 -0.230285 7.42237 27.1515
60 1 -1.46643 7.20751 27.8389
78 1 -0.0652711 7.28254 21.4935
79 1 -0.12897 7.27689 22.8966
80 1 -1.34148 7.35992 23.5797
81 1 -1.39126 7.20551 25.0213
82 1 -2.59548 6.97715 25.6794
83 1 -2.60228 6.85319 27.0894
84 1 -3.77077 6.48721 27.7464
106 1 -2.45556 7.1349 21.3771
107 1 -2.50301 7.23094 22.7984
108 1 -3.58713 6.61628 23.4652
109 1 -3.66371 6.58676 24.8678
110 1 -4.73425 5.94651 25.5029
111 1 -4.71856 5.82146 26.9233
112 1 -5.67137 5.01144 27.5762
132 1 -4.55075 5.93806 21.2182
133 1 -4.61962 5.99832 22.6343
134 1 -5.47674 5.12807 23.32
135 1 -5.52385 5.06027 24.7105
136 1 -6.24116 4.06446 25.4058
137 1 -6.27344 4.02502 26.8039
138 1 -6.78769 2.88521 27.4915
158 1 -6.25515 4.27871 21.1593
159 1 -6.18945 4.1754 22.5861
160 1 -6.9085 3.17945 23.2602
161 1 -6.86464 3.11921 24.6596
162 1 -7.19354 1.92702 25.316
163 1 -7.1903 1.84687 26.7453
164 1 -7.38729 0.625204 27.4198
185 1 -7.26963 2.09065 22.4655
186 1 -7.3822 0.747819 23.0895
187 1 -7.34136 0.788624 24.5093
700 1 -0.324711 7.4077 29.9924
829 1 -7.39333 0.579468 28.8116
725 1 -1.44199 7.19559 29.2202
726 1 -2.67329 6.88115 29.8798
727 1 -2.6227 6.84745 31.3068
751 1 -3.71246 6.32601 29.1332
752 1 -4.71058 5.6246 29.7435
753 1 -4.65024 5.58456 31.1427
777 1 -5.55572 4.91967 28.9745
778 1 -6.29513 3.90123 29.6038
779 1 -6.25139 3.80201 31.0093
803 1 -6.6995 2.83461 28.9088
804 1 -7.0593 1.67263 29.5519
805 1 -7.14192 1.58601 30.97
184 1 -7.13995 2.1072 21.0436
656 1 -0.800513 7.4753 38.4896
657 1 -0.93158 7.54582 39.9129
658 1 -2.16898 7.34716 40.5831
678 1 -0.519274 7.49917 34.291
679 1 -0.612927 7.48006 35.702
680 1 -1.80882 7.18972 36.3283
681 1 -1.92636 7.16838 37.7287
682 1 -3.0806 6.87895 38.3711
683 1 -3.25751 6.93614 39.7817
684 1 -4.33942 6.3334 40.4409
702 1 -1.6045 7.36746 32.0546
703 1 -1.67357 7.35898 33.4729
704 1 -2.81613 6.87885 34.1458
705 1 -2.86565 6.75402 35.557
706 1 -4.01402 6.39774 36.2106
707 1 -4.04039 6.36401 37.5745
708 1 -5.01339 5.56138 38.2157
709 1 -5.14747 5.50517 39.6526
710 1 -5.95024 4.57263 40.2916