ITEM: TIMESTEP
0
ITEM: NUMBER OF ATOMS
4700
ITEM: BOX BOUNDS pp pp pp
-50 50
-50 50
-0.709 199.229
ITEM: ATOMS id type xu yu zu
 1 1 9.77874 0 0
 2 1 9.70163 1.2256 0.709
 3 1 9.70163 1.2256 2.127
 4 1 9.47152 2.43187 2.836
 5 1 9.47152 2.43187 0
 6 1 9.09204 3.59979 0.709
 7 1 9.09204 3.59979 2.127
 8 1 8.56917 4.71094 2.836
 9 1 8.56917 4.71094 0
 10 1 7.91116 5.7478 0.709
 11 1 7.91116 5.7478 2.127
 12 1 7.12839 6.69401 2.836
 13 1 7.12839 6.69401 0
 14 1 6.2332 7.53465 0.709
 15 1 6.2332 7.53465 2.127
 16 1 5.23971 8.25646 2.836
 17 1 5.23971 8.25646 0
 18 1 4.16358 8.84807 0.709
 19 1 4.16358 8.84807 2.127
 20 1 3.0218 9.30013 2.836
 21 1 3.0218 9.30013 0
 22 1 1.83235 9.60553 0.709
 23 1 1.83235 9.60553 2.127
 24 1 0.614012 9.75944 2.836
 25 1 0.614012 9.75944 0
 26 1 -0.614012 9.75944 0.709
 27 1 -0.614012 9.75944 2.127
 28 1 -1.83235 9.60553 2.836
 29 1 -1.83235 9.60553 0
 30 1 -3.0218 9.30013 0.709
 31 1 -3.0218 9.30013 2.127
 32 1 -4.16358 8.84807 2.836
 33 1 -4.16358 8.84807 0
 34 1 -5.23971 8.25646 0.709
 35 1 -5.23971 8.25646 2.127
 36 1 -6.2332 7.53465 2.836
 37 1 -6.2332 7.53465 0
 38 1 -7.12839 6.69401 0.709
 39 1 -7.12839 6.69401 2.127
 40 1 -7.91116 5.7478 2.836
 41 1 -7.91116 5.7478 0
 42 1 -8.56917 4.71094 0.709
 43 1 -8.56917 4.71094 2.127
 44 1 -9.09204 3.59979 2.836
 45 1 -9.09204 3.59979 0
 46 1 -9.47152 2.43187 0.709
 47 1 -9.47152 2.43187 2.127
 48 1 -9.70163 1.2256 2.836
 49 1 -9.70163 1.2256 0
 50 1 -9.77874 1.19755e-15 0.709
 51 1 -9.77874 5.54018e-15 2.127
 52 1 -9.70163 -1.2256 2.836
 53 1 -9.70163 -1.2256 0
 54 1 -9.47152 -2.43187 0.709
 55 1 -9.47152 -2.43187 2.127
 56 1 -9.09204 -3.59979 2.836
 57 1 -9.09204 -3.59979 0
 58 1 -8.56917 -4.71094 0.709
 59 1 -8.56917 -4.71094 2.127
 60 1 -7.91116 -5.7478 2.836
 61 1 -7.91116 -5.7478 0
 62 1 -7.12839 -6.69401 0.709
 63 1 -7.12839 -6.69401 2.127
 64 1 -6.2332 -7.53465 2.836
 65 1 -6.2332 -7.53465 0
 66 1 -5.23971 -8.25646 0.709
 67 1 -5.23971 -8.25646 2.127
 68 1 -4.16358 -8.84807 2.836
 69 1 -4.16358 -8.84807 0
 70 1 -3.0218 -9.30013 0.709
 71 1 -3.0218 -9.30013 2.127
 72 1 -1.83235 -9.60553 2.836
 73 1 -1.83235 -9.60553 0
 74 1 -0.614012 -9.75944 0.709
 75 1 -0.614012 -9.75944 2.127
 76 1 0.614012 -9.75944 2.836
 77 1 0.614012 -9.75944 0
 78 1 1.83235 -9.60553 0.709
 79 1 1.83235 -9.60553 2.127
 80 1 3.0218 -9.30013 2.836
 81 1 3.0218 -9.30013 0
 82 1 4.16358 -8.84807 0.709
 83 1 4.16358 -8.84807 2.127
 84 1 5.23971 -8.25646 2.836
 85 1 5.23971 -8.25646 0
 86 1 6.2332 -7.53465 0.709
 87 1 6.2332 -7.53465 2.127
 88 1 7.12839 -6.69401 2.836
 89 1 7.12839 -6.69401 0
 90 1 7.91116 -5.7478 0.709
 91 1 7.91116 -5.7478 2.127
 92 1 8.56917 -4.71094 2.836
 93 1 8.56917 -4.71094 0
 94 1 9.09204 -3.59979 0.709
 95 1 9.09204 -3.59979 2.127
 96 1 9.47152 -2.43187 2.836
 97 1 9.47152 -2.43187 0
 98 1 9.70163 -1.2256 0.709
 99 1 9.70163 -1.2256 2.127
 100 1 9.77874 -1.10804e-14 2.836
 101 1 9.77874 0 4.254
 102 1 9.70163 1.2256 4.963
 103 1 9.70163 1.2256 6.381
 104 1 9.47152 2.43187 7.09
 105 1 9.47152 2.43187 4.254
 106 1 9.09204 3.59979 4.963
 107 1 9.09204 3.59979 6.381
 108 1 8.56917 4.71094 7.09
 109 1 8.56917 4.71094 4.254
 110 1 7.91116 5.7478 4.963
 111 1 7.91116 5.7478 6.381
 112 1 7.12839 6.69401 7.09
 113 1 7.12839 6.69401 4.254
 114 1 6.2332 7.53465 4.963
 115 1 6.2332 7.53465 6.381
 116 1 5.23971 8.25646 7.09
 117 1 5.23971 8.25646 4.254
 118 1 4.16358 8.84807 4.963
 119 1 4.16358 8.84807 6.381
 120 1 3.0218 9.30013 7.09
 121 1 3.0218 9.30013 4.254
 122 1 1.83235 9.60553 4.963
 123 1 1.83235 9.60553 6.381
 124 1 0.614012 9.75944 7.09
 125 1 0.614012 9.75944 4.254
 126 1 -0.614012 9.75944 4.963
 127 1 -0.614012 9.75944 6.381
 128 1 -1.83235 9.60553 7.09
 129 1 -1.83235 9.60553 4.254
 130 1 -3.0218 9.30013 4.963
 131 1 -3.0218 9.30013 6.381
 132 1 -4.16358 8.84807 7.09
 133 1 -4.16358 8.84807 4.254
 134 1 -5.23971 8.25646 4.963
 135 1 -5.23971 8.25646 6.381
 136 1 -6.2332 7.53465 7.09
 137 1 -6.2332 7.53465 4.254
 138 1 -7.12839 6.69401 4.963
 139 1 -7.12839 6.69401 6.381
 140 1 -7.91116 5.7478 7.09
 141 1 -7.91116 5.7478 4.254
 142 1 -8.56917 4.71094 4.963
 143 1 -8.56917 4.71094 6.381
 144 1 -9.09204 3.59979 7.09
 145 1 -9.09204 3.59979 4.254
 146 1 -9.47152 2.43187 4.963
 147 1 -9.47152 2.43187 6.381
 148 1 -9.70163 1.2256 7.09
 149 1 -9.70163 1.2256 4.254
 150 1 -9.77874 1.19755e-15 4.963
 151 1 -9.77874 5.54018e-15 6.381
 152 1 -9.70163 -1.2256 7.09
 153 1 -9.70163 -1.2256 4.254
 154 1 -9.47152 -2.43187 4.963
 155 1 -9.47152 -2.43187 6.381
 156 1 -9.09204 -3.59979 7.09
 157 1 -9.09204 -3.59979 4.254
 158 1 -8.56917 -4.71094 4.963
 159 1 -8.56917 -4.71094 6.381
 160 1 -7.91116 -5.7478 7.09
 161 1 -7.91116 -5.7478 4.254
 162 1 -7.12839 -6.69401 4.963
 163 1 -7.12839 -6.69401 6.381
 164 1 -6.2332 -7.53465 7.09
 165 1 -6.2332 -7.53465 4.254
 166 1 -5.23971 -8.25646 4.963
 167 1 -5.23971 -8.25646 6.381
 168 1 -4.16358 -8.84807 7.09
 169 1 -4.16358 -8.84807 4.254
 170 1 -3.0218 -9.30013 4.963
 171 1 -3.0218 -9.30013 6.381
 172 1 -1.83235 -9.60553 7.09
 173 1 -1.83235 -9.60553 4.254
 174 1 -0.614012 -9.75944 4.963
 175 1 -0.614012 -9.75944 6.381
 176 1 0.614012 -9.75944 7.09
 177 1 0.614012 -9.75944 4.254
 178 1 1.83235 -9.60553 4.963
 179 1 1.83235 -9.60553 6.381
 180 1 3.0218 -9.30013 7.09
 181 1 3.0218 -9.30013 4.254
 182 1 4.16358 -8.84807 4.963
 183 1 4.16358 -8.84807 6.381
 184 1 5.23971 -8.25646 7.09
 185 1 5.23971 -8.25646 4.254
 186 1 6.2332 -7.53465 4.963
 187 1 6.2332 -7.53465 6.381
 188 1 7.12839 -6.69401 7.09
 189 1 7.12839 -6.69401 4.254
 190 1 7.91116 -5.7478 4.963
 191 1 7.91116 -5.7478 6.381
 192 1 8.56917 -4.71094 7.09
 193 1 8.56917 -4.71094 4.254
 194 1 9.09204 -3.59979 4.963
 195 1 9.09204 -3.59979 6.381
 196 1 9.47152 -2.43187 7.09
 197 1 9.47152 -2.43187 4.254
 198 1 9.70163 -1.2256 4.963
 199 1 9.70163 -1.2256 6.381
 200 1 9.77874 -1.10804e-14 7.09
 201 1 9.77874 0 8.508
 202 1 9.70163 1.2256 9.217
 203 1 9.70163 1.2256 10.635
 204 1 9.47152 2.43187 11.344
 205 1 9.47152 2.43187 8.508
 206 1 9.09204 3.59979 9.217
 207 1 9.09204 3.59979 10.635
 208 1 8.56917 4.71094 11.344
 209 1 8.56917 4.71094 8.508
 210 1 7.91116 5.7478 9.217
 211 1 7.91116 5.7478 10.635
 212 1 7.12839 6.69401 11.344
 213 1 7.12839 6.69401 8.508
 214 1 6.2332 7.53465 9.217
 215 1 6.2332 7.53465 10.635
 216 1 5.23971 8.25646 11.344
 217 1 5.23971 8.25646 8.508
 218 1 4.16358 8.84807 9.217
 219 1 4.16358 8.84807 10.635
 220 1 3.0218 9.30013 11.344
 221 1 3.0218 9.30013 8.508
 222 1 1.83235 9.60553 9.217
 223 1 1.83235 9.60553 10.635
 224 1 0.614012 9.75944 11.344
 225 1 0.614012 9.75944 8.508
 226 1 -0.614012 9.75944 9.217
 227 1 -0.614012 9.75944 10.635
 228 1 -1.83235 9.60553 11.344
 229 1 -1.83235 9.60553 8.508
 230 1 -3.0218 9.30013 9.217
 231 1 -3.0218 9.30013 10.635
 232 1 -4.16358 8.84807 11.344
 233 1 -4.16358 8.84807 8.508
 234 1 -5.23971 8.25646 9.217
 235 1 -5.23971 8.25646 10.635
 236 1 -6.2332 7.53465 11.344
 237 1 -6.2332 7.53465 8.508
 238 1 -7.12839 6.69401 9.217
 239 1 -7.12839 6.69401 10.635
 240 1 -7.91116 5.7478 11.344
 241 1 -7.91116 5.7478 8.508
 242 1 -8.56917 4.71094 9.217
 243 1 -8.56917 4.71094 10.635
 244 1 -9.09204 3.59979 11.344
 245 1 -9.09204 3.59979 8.508
 246 1 -9.47152 2.43187 9.217
 247 1 -9.47152 2.43187 10.635
 248 1 -9.70163 1.2256 11.344
 249 1 -9.70163 1.2256 8.508
 250 1 -9.77874 1.19755e-15 9.217
 251 1 -9.77874 5.54018e-15 10.635
 252 1 -9.70163 -1.2256 11.344
 253 1 -9.70163 -1.2256 8.508
 254 1 -9.47152 -2.43187 9.217
 255 1 -9.47152 -2.43187 10.635
 256 1 -9.09204 -3.59979 11.344
 257 1 -9.09204 -3.59979 8.508
 258 1 -8.56917 -4.71094 9.217
 259 1 -8.56917 -4.71094 10.635
 260 1 -7.91116 -5.7478 11.344
 261 1 -7.91116 -5.7478 8.508
 262 1 -7.12839 -6.69401 9.217
 263 1 -7.12839 -6.69401 10.635
 264 1 -6.2332 -7.53465 11.344
 265 1 -6.2332 -7.53465 8.508
 266 1 -5.23971 -8.25646 9.217
 267 1 -5.23971 -8.25646 10.635
 268 1 -4.16358 -8.84807 11.344
 269 1 -4.16358 -8.84807 8.508
 270 1 -3.0218 -9.30013 9.217
 271 1 -3.0218 -9.30013 10.635
 272 1 -1.83235 -9.60553 11.344
 273 1 -1.83235 -9.60553 8.508
 274 1 -0.614012 -9.75944 9.217
 275 1 -0.614012 -9.75944 10.635
 276 1 0.614012 -9.75944 11.344
 277 1 0.614012 -9.75944 8.508
 278 1 1.83235 -9.60553 9.217
 279 1 1.83235 -9.60553 10.635
 280 1 3.0218 -9.30013 11.344
 281 1 3.0218 -9.30013 8.508
 282 1 4.16358 -8.84807 9.217
 283 1 4.16358 -8.84807 10.635
 284 1 5.23971 -8.25646 11.344
 285 1 5.23971 -8.25646 8.508
 286 1 6.2332 -7.53465 9.217
 287 1 6.2332 -7.53465 10.635
 288 1 7.12839 -6.69401 11.344
 289 1 7.12839 -6.69401 8.508
 290 1 7.91116 -5.7478 9.217
 291 1 7.91116 -5.7478 10.635
 292 1 8.56917 -4.71094 11.344
 293 1 8.56917 -4.71094 8.508
 294 1 9.09204 -3.59979 9.217
 295 1 9.09204 -3.59979 10.635
 296 1 9.47152 -2.43187 11.344
 297 1 9.47152 -2.43187 8.508
 298 1 9.70163 -1.2256 9.217
 299 1 9.70163 -1.2256 10.635
 300 1 9.77874 -1.10804e-14 11.344
 301 1 9.77874 0 12.762
 302 1 9.70163 1.2256 13.471
 303 1 9.70163 1.2256 14.889
 304 1 9.47152 2.43187 15.598
 305 1 9.47152 2.43187 12.762
 306 1 9.09204 3.59979 13.471
 307 1 9.09204 3.59979 14.889
 308 1 8.56917 4.71094 15.598
 309 1 8.56917 4.71094 12.762
 310 1 7.91116 5.7478 13.471
 311 1 7.91116 5.7478 14.889
 312 1 7.12839 6.69401 15.598
 313 1 7.12839 6.69401 12.762
 314 1 6.2332 7.53465 13.471
 315 1 6.2332 7.53465 14.889
 316 1 5.23971 8.25646 15.598
 317 1 5.23971 8.25646 12.762
 318 1 4.16358 8.84807 13.471
 319 1 4.16358 8.84807 14.889
 320 1 3.0218 9.30013 15.598
 321 1 3.0218 9.30013 12.762
 322 1 1.83235 9.60553 13.471
 323 1 1.83235 9.60553 14.889
 324 1 0.614012 9.75944 15.598
 325 1 0.614012 9.75944 12.762
 326 1 -0.614012 9.75944 13.471
 327 1 -0.614012 9.75944 14.889
 328 1 -1.83235 9.60553 15.598
 329 1 -1.83235 9.60553 12.762
 330 1 -3.0218 9.30013 13.471
 331 1 -3.0218 9.30013 14.889
 332 1 -4.16358 8.84807 15.598
 333 1 -4.16358 8.84807 12.762
 334 1 -5.23971 8.25646 13.471
 335 1 -5.23971 8.25646 14.889
 336 1 -6.2332 7.53465 15.598
 337 1 -6.2332 7.53465 12.762
 338 1 -7.12839 6.69401 13.471
 339 1 -7.12839 6.69401 14.889
 340 1 -7.91116 5.7478 15.598
 341 1 -7.91116 5.7478 12.762
 342 1 -8.56917 4.71094 13.471
 343 1 -8.56917 4.71094 14.889
 344 1 -9.09204 3.59979 15.598
 345 1 -9.09204 3.59979 12.762
 346 1 -9.47152 2.43187 13.471
 347 1 -9.47152 2.43187 14.889
 348 1 -9.70163 1.2256 15.598
 349 1 -9.70163 1.2256 12.762
 350 1 -9.77874 1.19755e-15 13.471
 351 1 -9.77874 5.54018e-15 14.889
 352 1 -9.70163 -1.2256 15.598
 353 1 -9.70163 -1.2256 12.762
 354 1 -9.47152 -2.43187 13.471
 355 1 -9.47152 -2.43187 14.889
 356 1 -9.09204 -3.59979 15.598
 357 1 -9.09204 -3.59979 12.762
 358 1 -8.56917 -4.71094 13.471
 359 1 -8.56917 -4.71094 14.889
 360 1 -7.91116 -5.7478 15.598
 361 1 -7.91116 -5.7478 12.762
 362 1 -7.12839 -6.69401 13.471
 363 1 -7.12839 -6.69401 14.889
 364 1 -6.2332 -7.53465 15.598
 365 1 -6.2332 -7.53465 12.762
 366 1 -5.23971 -8.25646 13.471
 367 1 -5.23971 -8.25646 14.889
 368 1 -4.16358 -8.84807 15.598
 369 1 -4.16358 -8.84807 12.762
 370 1 -3.0218 -9.30013 13.471
 371 1 -3.0218 -9.30013 14.889
 372 1 -1.83235 -9.60553 15.598
 373 1 -1.83235 -9.60553 12.762
 374 1 -0.614012 -9.75944 13.471
 375 1 -0.614012 -9.75944 14.889
 376 1 0.614012 -9.75944 15.598
 377 1 0.614012 -9.75944 12.762
 378 1 1.83235 -9.60553 13.471
 379 1 1.83235 -9.60553 14.889
 380 1 3.0218 -9.30013 15.598
 381 1 3.0218 -9.30013 12.762
 382 1 4.16358 -8.84807 13.471
 383 1 4.16358 -8.84807 14.889
 384 1 5.23971 -8.25646 15.598
 385 1 5.23971 -8.25646 12.762
 386 1 6.2332 -7.53465 13.471
 387 1 6.2332 -7.53465 14.889
 388 1 7.12839 -6.69401 15.598
 389 1 7.12839 -6.69401 12.762
 390 1 7.91116 -5.7478 13.471
 391 1 7.91116 -5.7478 14.889
 392 1 8.56917 -4.71094 15.598
 393 1 8.56917 -4.71094 12.762
 394 1 9.09204 -3.59979 13.471
 395 1 9.09204 -3.59979 14.889
 396 1 9.47152 -2.43187 15.598
 397 1 9.47152 -2.43187 12.762
 398 1 9.70163 -1.2256 13.471
 399 1 9.70163 -1.2256 14.889
 400 1 9.77874 -1.10804e-14 15.598
 401 1 9.77874 0 17.016
 402 1 9.70163 1.2256 17.725
 403 1 9.70163 1.2256 19.143
 404 1 9.47152 2.43187 19.852
 405 1 9.47152 2.43187 17.016
 406 1 9.09204 3.59979 17.725
 407 1 9.09204 3.59979 19.143
 408 1 8.56917 4.71094 19.852
 409 1 8.56917 4.71094 17.016
 410 1 7.91116 5.7478 17.725
 411 1 7.91116 5.7478 19.143
 412 1 7.12839 6.69401 19.852
 413 1 7.12839 6.69401 17.016
 414 1 6.2332 7.53465 17.725
 415 1 6.2332 7.53465 19.143
 416 1 5.23971 8.25646 19.852
 417 1 5.23971 8.25646 17.016
 418 1 4.16358 8.84807 17.725
 419 1 4.16358 8.84807 19.143
 420 1 3.0218 9.30013 19.852
 421 1 3.0218 9.30013 17.016
 422 1 1.83235 9.60553 17.725
 423 1 1.83235 9.60553 19.143
 424 1 0.614012 9.75944 19.852
 425 1 0.614012 9.75944 17.016
 426 1 -0.614012 9.75944 17.725
 427 1 -0.614012 9.75944 19.143
 428 1 -1.83235 9.60553 19.852
 429 1 -1.83235 9.60553 17.016
 430 1 -3.0218 9.30013 17.725
 431 1 -3.0218 9.30013 19.143
 432 1 -4.16358 8.84807 19.852
 433 1 -4.16358 8.84807 17.016
 434 1 -5.23971 8.25646 17.725
 435 1 -5.23971 8.25646 19.143
 436 1 -6.2332 7.53465 19.852
 437 1 -6.2332 7.53465 17.016
 438 1 -7.12839 6.69401 17.725
 439 1 -7.12839 6.69401 19.143
 440 1 -7.91116 5.7478 19.852
 441 1 -7.91116 5.7478 17.016
 442 1 -8.56917 4.71094 17.725
 443 1 -8.56917 4.71094 19.143
 444 1 -9.09204 3.59979 19.852
 445 1 -9.09204 3.59979 17.016
 446 1 -9.47152 2.43187 17.725
 447 1 -9.47152 2.43187 19.143
 448 1 -9.70163 1.2256 19.852
 449 1 -9.70163 1.2256 17.016
 450 1 -9.77874 1.19755e-15 17.725
 451 1 -9.77874 5.54018e-15 19.143
 452 1 -9.70163 -1.2256 19.852
 453 1 -9.70163 -1.2256 17.016
 454 1 -9.47152 -2.43187 17.725
 455 1 -9.47152 -2.43187 19.143
 456 1 -9.09204 -3.59979 19.852
 457 1 -9.09204 -3.59979 17.016
 458 1 -8.56917 -4.71094 17.725
 459 1 -8.56917 -4.71094 19.143
 460 1 -7.91116 -5.7478 19.852
 461 1 -7.91116 -5.7478 17.016
 462 1 -7.12839 -6.69401 17.725
 463 1 -7.12839 -6.69401 19.143
 464 1 -6.2332 -7.53465 19.852
 465 1 -6.2332 -7.53465 17.016
 466 1 -5.23971 -8.25646 17.725
 467 1 -5.23971 -8.25646 19.143
 468 1 -4.16358 -8.84807 19.852
 469 1 -4.16358 -8.84807 17.016
 470 1 -3.0218 -9.30013 17.725
 471 1 -3.0218 -9.30013 19.143
 472 1 -1.83235 -9.60553 19.852
 473 1 -1.83235 -9.60553 17.016
 474 1 -0.614012 -9.75944 17.725
 475 1 -0.614012 -9.75944 19.143
 476 1 0.614012 -9.75944 19.852
 477 1 0.614012 -9.75944 17.016
 478 1 1.83235 -9.60553 17.725
 479 1 1.83235 -9.60553 19.143
 480 1 3.0218 -9.30013 19.852
 481 1 3.0218 -9.30013 17.016
 482 1 4.16358 -8.84807 17.725
 483 1 4.16358 -8.84807 19.143
 484 1 5.23971 -8.25646 19.852
 485 1 5.23971 -8.25646 17.016
 486 1 6.2332 -7.53465 17.725
 487 1 6.2332 -7.53465 19.143
 488 1 7.12839 -6.69401 19.852
 489 1 7.12839 -6.69401 17.016
 490 1 7.91116 -5.7478 17.725
 491 1 7.91116 -5.7478 19.143
 492 1 8.56917 -4.71094 19.852
 493 1 8.56917 -4.71094 17.016
 494 1 9.09204 -3.59979 17.725
 495 1 9.09204 -3.59979 19.143
 496 1 9.47152 -2.43187 19.852
 497 1 9.47152 -2.43187 17.016
 498 1 9.70163 -1.2256 17.725
 499 1 9.70163 -1.2256 19.143
 500 1 9.77874 -1.10804e-14 19.852
 501 1 9.77874 0 21.27
 502 1 9.70163 1.2256 21.979
 503 1 9.70163 1.2256 23.397
 504 1 9.47152 2.43187 24.106
 505 1 9.47152 2.43187 21.27
 506 1 9.09204 3.59979 21.979
 507 1 9.09204 3.59979 23.397
 508 1 8.56917 4.71094 24.106
 509 1 8.56917 4.71094 21.27
 510 1 7.91116 5.7478 21.979
 511 1 7.91116 5.7478 23.397
 512 1 7.12839 6.69401 24.106
 513 1 7.12839 6.69401 21.27
 514 1 6.2332 7.53465 21.979
 515 1 6.2332 7.53465 23.397
 516 1 5.23971 8.25646 24.106
 517 1 5.23971 8.25646 21.27
 518 1 4.16358 8.84807 21.979
 519 1 4.16358 8.84807 23.397
 520 1 3.0218 9.30013 24.106
 521 1 3.0218 9.30013 21.27
 522 1 1.83235 9.60553 21.979
 523 1 1.83235 9.60553 23.397
 524 1 0.614012 9.75944 24.106
 525 1 0.614012 9.75944 21.27
 526 1 -0.614012 9.75944 21.979
 527 1 -0.614012 9.75944 23.397
 528 1 -1.83235 9.60553 24.106
 529 1 -1.83235 9.60553 21.27
 530 1 -3.0218 9.30013 21.979
 531 1 -3.0218 9.30013 23.397
 532 1 -4.16358 8.84807 24.106
 533 1 -4.16358 8.84807 21.27
 534 1 -5.23971 8.25646 21.979
 535 1 -5.23971 8.25646 23.397
 536 1 -6.2332 7.53465 24.106
 537 1 -6.2332 7.53465 21.27
 538 1 -7.12839 6.69401 21.979
 539 1 -7.12839 6.69401 23.397
 540 1 -7.91116 5.7478 24.106
 541 1 -7.91116 5.7478 21.27
 542 1 -8.56917 4.71094 21.979
 543 1 -8.56917 4.71094 23.397
 544 1 -9.09204 3.59979 24.106
 545 1 -9.09204 3.59979 21.27
 546 1 -9.47152 2.43187 21.979
 547 1 -9.47152 2.43187 23.397
 548 1 -9.70163 1.2256 24.106
 549 1 -9.70163 1.2256 21.27
 550 1 -9.77874 1.19755e-15 21.979
 551 1 -9.77874 5.54018e-15 23.397
 552 1 -9.70163 -1.2256 24.106
 553 1 -9.70163 -1.2256 21.27
 554 1 -9.47152 -2.43187 21.979
 555 1 -9.47152 -2.43187 23.397
 556 1 -9.09204 -3.59979 24.106
 557 1 -9.09204 -3.59979 21.27
 558 1 -8.56917 -4.71094 21.979
 559 1 -8.56917 -4.71094 23.397
 560 1 -7.91116 -5.7478 24.106
 561 1 -7.91116 -5.7478 21.27
 562 1 -7.12839 -6.69401 21.979
 563 1 -7.12839 -6.69401 23.397
 564 1 -6.2332 -7.53465 24.106
 565 1 -6.2332 -7.53465 21.27
 566 1 -5.23971 -8.25646 21.979
 567 1 -5.23971 -8.25646 23.397
 568 1 -4.16358 -8.84807 24.106
 569 1 -4.16358 -8.84807 21.27
 570 1 -3.0218 -9.30013 21.979
 571 1 -3.0218 -9.30013 23.397
 572 1 -1.83235 -9.60553 24.106
 573 1 -1.83235 -9.60553 21.27
 574 1 -0.614012 -9.75944 21.979
 575 1 -0.614012 -9.75944 23.397
 576 1 0.614012 -9.75944 24.106
 577 1 0.614012 -9.75944 21.27
 578 1 1.83235 -9.60553 21.979
 579 1 1.83235 -9.60553 23.397
 580 1 3.0218 -9.30013 24.106
 581 1 3.0218 -9.30013 21.27
 582 1 4.16358 -8.84807 21.979
 583 1 4.16358 -8.84807 23.397
 584 1 5.23971 -8.25646 24.106
 585 1 5.23971 -8.25646 21.27
 586 1 6.2332 -7.53465 21.979
 587 1 6.2332 -7.53465 23.397
 588 1 7.12839 -6.69401 24.106
 589 1 7.12839 -6.69401 21.27
 590 1 7.91116 -5.7478 21.979
 591 1 7.91116 -5.7478 23.397
 592 1 8.56917 -4.71094 24.106
 593 1 8.56917 -4.71094 21.27
 594 1 9.09204 -3.59979 21.979
 595 1 9.09204 -3.59979 23.397
 596 1 9.47152 -2.43187 24.106
 597 1 9.47152 -2.43187 21.27
 598 1 9.70163 -1.2256 21.979
 599 1 9.70163 -1.2256 23.397
 600 1 9.77874 -1.10804e-14 24.106
 601 1 9.77874 0 25.524
 602 1 9.70163 1.2256 26.233
 603 1 9.70163 1.2256 27.651
 604 1 9.47152 2.43187 28.36
 605 1 9.47152 2.43187 25.524
 606 1 9.09204 3.59979 26.233
 607 1 9.09204 3.59979 27.651
 608 1 8.56917 4.71094 28.36
 609 1 8.56917 4.71094 25.524
 610 1 7.91116 5.7478 26.233
 611 1 7.91116 5.7478 27.651
 612 1 7.12839 6.69401 28.36
 613 1 7.12839 6.69401 25.524
 614 1 6.2332 7.53465 26.233
 615 1 6.2332 7.53465 27.651
 616 1 5.23971 8.25646 28.36
 617 1 5.23971 8.25646 25.524
 618 1 4.16358 8.84807 26.233
 619 1 4.16358 8.84807 27.651
 620 1 3.0218 9.30013 28.36
 621 1 3.0218 9.30013 25.524
 622 1 1.83235 9.60553 26.233
 623 1 1.83235 9.60553 27.651
 624 1 0.614012 9.75944 28.36
 625 1 0.614012 9.75944 25.524
 626 1 -0.614012 9.75944 26.233
 627 1 -0.614012 9.75944 27.651
 628 1 -1.83235 9.60553 28.36
 629 1 -1.83235 9.60553 25.524
 630 1 -3.0218 9.30013 26.233
 631 1 -3.0218 9.30013 27.651
 632 1 -4.16358 8.84807 28.36
 633 1 -4.16358 8.84807 25.524
 634 1 -5.23971 8.25646 26.233
 635 1 -5.23971 8.25646 27.651
 636 1 -6.2332 7.53465 28.36
 637 1 -6.2332 7.53465 25.524
 638 1 -7.12839 6.69401 26.233
 639 1 -7.12839 6.69401 27.651
 640 1 -7.91116 5.7478 28.36
 641 1 -7.91116 5.7478 25.524
 642 1 -8.56917 4.71094 26.233
 643 1 -8.56917 4.71094 27.651
 644 1 -9.09204 3.59979 28.36
 645 1 -9.09204 3.59979 25.524
 646 1 -9.47152 2.43187 26.233
 647 1 -9.47152 2.43187 27.651
 648 1 -9.70163 1.2256 28.36
 649 1 -9.70163 1.2256 25.524
 650 1 -9.77874 1.19755e-15 26.233
 651 1 -9.77874 5.54018e-15 27.651
 652 1 -9.70163 -1.2256 28.36
 653 1 -9.70163 -1.2256 25.524
 654 1 -9.47152 -2.43187 26.233
 655 1 -9.47152 -2.43187 27.651
 656 1 -9.09204 -3.59979 28.36
 657 1 -9.09204 -3.59979 25.524
 658 1 -8.56917 -4.71094 26.233
 659 1 -8.56917 -4.71094 27.651
 660 1 -7.91116 -5.7478 28.36
 661 1 -7.91116 -5.7478 25.524
 662 1 -7.12839 -6.69401 26.233
 663 1 -7.12839 -6.69401 27.651
 664 1 -6.2332 -7.53465 28.36
 665 1 -6.2332 -7.53465 25.524
 666 1 -5.23971 -8.25646 26.233
 667 1 -5.23971 -8.25646 27.651
 668 1 -4.16358 -8.84807 28.36
 669 1 -4.16358 -8.84807 25.524
 670 1 -3.0218 -9.30013 26.233
 671 1 -3.0218 -9.30013 27.651
 672 1 -1.83235 -9.60553 28.36
 673 1 -1.83235 -9.60553 25.524
 674 1 -0.614012 -9.75944 26.233
 675 1 -0.614012 -9.75944 27.651
 676 1 0.614012 -9.75944 28.36
 677 1 0.614012 -9.75944 25.524
 678 1 1.83235 -9.60553 26.233
 679 1 1.83235 -9.60553 27.651
 680 1 3.0218 -9.30013 28.36
 681 1 3.0218 -9.30013 25.524
 682 1 4.16358 -8.84807 26.233
 683 1 4.16358 -8.84807 27.651
 684 1 5.23971 -8.25646 28.36
 685 1 5.23971 -8.25646 25.524
 686 1 6.2332 -7.53465 26.233
 687 1 6.2332 -7.53465 27.651
 688 1 7.12839 -6.69401 28.36
 689 1 7.12839 -6.69401 25.524
 690 1 7.91116 -5.7478 26.233
 691 1 7.91116 -5.7478 27.651
 692 1 8.56917 -4.71094 28.36
 693 1 8.56917 -4.71094 25.524
 694 1 9.09204 -3.59979 26.233
 695 1 9.09204 -3.59979 27.651
 696 1 9.47152 -2.43187 28.36
 697 1 9.47152 -2.43187 25.524
 698 1 9.70163 -1.2256 26.233
 699 1 9.70163 -1.2256 27.651
 700 1 9.77874 -1.10804e-14 28.36
 701 1 9.77874 0 29.778
 702 1 9.70163 1.2256 30.487
 703 1 9.70163 1.2256 31.905
 704 1 9.47152 2.43187 32.614
 705 1 9.47152 2.43187 29.778
 706 1 9.09204 3.59979 30.487
 707 1 9.09204 3.59979 31.905
 708 1 8.56917 4.71094 32.614
 709 1 8.56917 4.71094 29.778
 710 1 7.91116 5.7478 30.487
 711 1 7.91116 5.7478 31.905
 712 1 7.12839 6.69401 32.614
 713 1 7.12839 6.69401 29.778
 714 1 6.2332 7.53465 30.487
 715 1 6.2332 7.53465 31.905
 716 1 5.23971 8.25646 32.614
 717 1 5.23971 8.25646 29.778
 718 1 4.16358 8.84807 30.487
 719 1 4.16358 8.84807 31.905
 720 1 3.0218 9.30013 32.614
 721 1 3.0218 9.30013 29.778
 722 1 1.83235 9.60553 30.487
 723 1 1.83235 9.60553 31.905
 724 1 0.614012 9.75944 32.614
 725 1 0.614012 9.75944 29.778
 726 1 -0.614012 9.75944 30.487
 727 1 -0.614012 9.75944 31.905
 728 1 -1.83235 9.60553 32.614
 729 1 -1.83235 9.60553 29.778
 730 1 -3.0218 9.30013 30.487
 731 1 -3.0218 9.30013 31.905
 732 1 -4.16358 8.84807 32.614
 733 1 -4.16358 8.84807 29.778
 734 1 -5.23971 8.25646 30.487
 735 1 -5.23971 8.25646 31.905
 736 1 -6.2332 7.53465 32.614
 737 1 -6.2332 7.53465 29.778
 738 1 -7.12839 6.69401 30.487
 739 1 -7.12839 6.69401 31.905
 740 1 -7.91116 5.7478 32.614
 741 1 -7.91116 5.7478 29.778
 742 1 -8.56917 4.71094 30.487
 743 1 -8.56917 4.71094 31.905
 744 1 -9.09204 3.59979 32.614
 745 1 -9.09204 3.59979 29.778
 746 1 -9.47152 2.43187 30.487
 747 1 -9.47152 2.43187 31.905
 748 1 -9.70163 1.2256 32.614
 749 1 -9.70163 1.2256 29.778
 750 1 -9.77874 1.19755e-15 30.487
 751 1 -9.77874 5.54018e-15 31.905
 752 1 -9.70163 -1.2256 32.614
 753 1 -9.70163 -1.2256 29.778
 754 1 -9.47152 -2.43187 30.487
 755 1 -9.47152 -2.43187 31.905
 756 1 -9.09204 -3.59979 32.614
 757 1 -9.09204 -3.59979 29.778
 758 1 -8.56917 -4.71094 30.487
 759 1 -8.56917 -4.71094 31.905
 760 1 -7.91116 -5.7478 32.614
 761 1 -7.91116 -5.7478 29.778
 762 1 -7.12839 -6.69401 30.487
 763 1 -7.12839 -6.69401 31.905
 764 1 -6.2332 -7.53465 32.614
 765 1 -6.2332 -7.53465 29.778
 766 1 -5.23971 -8.25646 30.487
 767 1 -5.23971 -8.25646 31.905
 768 1 -4.16358 -8.84807 32.614
 769 1 -4.16358 -8.84807 29.778
 770 1 -3.0218 -9.30013 30.487
 771 1 -3.0218 -9.30013 31.905
 772 1 -1.83235 -9.60553 32.614
 773 1 -1.83235 -9.60553 29.778
 774 1 -0.614012 -9.75944 30.487
 775 1 -0.614012 -9.75944 31.905
 776 1 0.614012 -9.75944 32.614
 777 1 0.614012 -9.75944 29.778
 778 1 1.83235 -9.60553 30.487
 779 1 1.83235 -9.60553 31.905
 780 1 3.0218 -9.30013 32.614
 781 1 3.0218 -9.30013 29.778
 782 1 4.16358 -8.84807 30.487
 783 1 4.16358 -8.84807 31.905
 784 1 5.23971 -8.25646 32.614
 785 1 5.23971 -8.25646 29.778
 786 1 6.2332 -7.53465 30.487
 787 1 6.2332 -7.53465 31.905
 788 1 7.12839 -6.69401 32.614
 789 1 7.12839 -6.69401 29.778
 790 1 7.91116 -5.7478 30.487
 791 1 7.91116 -5.7478 31.905
 792 1 8.56917 -4.71094 32.614
 793 1 8.56917 -4.71094 29.778
 794 1 9.09204 -3.59979 30.487
 795 1 9.09204 -3.59979 31.905
 796 1 9.47152 -2.43187 32.614
 797 1 9.47152 -2.43187 29.778
 798 1 9.70163 -1.2256 30.487
 799 1 9.70163 -1.2256 31.905
 800 1 9.77874 -1.10804e-14 32.614
 801 1 9.77874 0 34.032
 802 1 9.70163 1.2256 34.741
 803 1 9.70163 1.2256 36.159
 804 1 9.47152 2.43187 36.868
 805 1 9.47152 2.43187 34.032
 806 1 9.09204 3.59979 34.741
 807 1 9.09204 3.59979 36.159
 808 1 8.56917 4.71094 36.868
 809 1 8.56917 4.71094 34.032
 810 1 7.91116 5.7478 34.741
 811 1 7.91116 5.7478 36.159
 812 1 7.12839 6.69401 36.868
 813 1 7.12839 6.69401 34.032
 814 1 6.2332 7.53465 34.741
 815 1 6.2332 7.53465 36.159
 816 1 5.23971 8.25646 36.868
 817 1 5.23971 8.25646 34.032
 818 1 4.16358 8.84807 34.741
 819 1 4.16358 8.84807 36.159
 820 1 3.0218 9.30013 36.868
 821 1 3.0218 9.30013 34.032
 822 1 1.83235 9.60553 34.741
 823 1 1.83235 9.60553 36.159
 824 1 0.614012 9.75944 36.868
 825 1 0.614012 9.75944 34.032
 826 1 -0.614012 9.75944 34.741
 827 1 -0.614012 9.75944 36.159
 828 1 -1.83235 9.60553 36.868
 829 1 -1.83235 9.60553 34.032
 830 1 -3.0218 9.30013 34.741
 831 1 -3.0218 9.30013 36.159
 832 1 -4.16358 8.84807 36.868
 833 1 -4.16358 8.84807 34.032
 834 1 -5.23971 8.25646 34.741
 835 1 -5.23971 8.25646 36.159
 836 1 -6.2332 7.53465 36.868
 837 1 -6.2332 7.53465 34.032
 838 1 -7.12839 6.69401 34.741
 839 1 -7.12839 6.69401 36.159
 840 1 -7.91116 5.7478 36.868
 841 1 -7.91116 5.7478 34.032
 842 1 -8.56917 4.71094 34.741
 843 1 -8.56917 4.71094 36.159
 844 1 -9.09204 3.59979 36.868
 845 1 -9.09204 3.59979 34.032
 846 1 -9.47152 2.43187 34.741
 847 1 -9.47152 2.43187 36.159
 848 1 -9.70163 1.2256 36.868
 849 1 -9.70163 1.2256 34.032
 850 1 -9.77874 1.19755e-15 34.741
 851 1 -9.77874 5.54018e-15 36.159
 852 1 -9.70163 -1.2256 36.868
 853 1 -9.70163 -1.2256 34.032
 854 1 -9.47152 -2.43187 34.741
 855 1 -9.47152 -2.43187 36.159
 856 1 -9.09204 -3.59979 36.868
 857 1 -9.09204 -3.59979 34.032
 858 1 -8.56917 -4.71094 34.741
 859 1 -8.56917 -4.71094 36.159
 860 1 -7.91116 -5.7478 36.868
 861 1 -7.91116 -5.7478 34.032
 862 1 -7.12839 -6.69401 34.741
 863 1 -7.12839 -6.69401 36.159
 864 1 -6.2332 -7.53465 36.868
 865 1 -6.2332 -7.53465 34.032
 866 1 -5.23971 -8.25646 34.741
 867 1 -5.23971 -8.25646 36.159
 868 1 -4.16358 -8.84807 36.868
 869 1 -4.16358 -8.84807 34.032
 870 1 -3.0218 -9.30013 34.741
 871 1 -3.0218 -9.30013 36.159
 872 1 -1.83235 -9.60553 36.868
 873 1 -1.83235 -9.60553 34.032
 874 1 -0.614012 -9.75944 34.741
 875 1 -0.614012 -9.75944 36.159
 876 1 0.614012 -9.75944 36.868
 877 1 0.614012 -9.75944 34.032
 878 1 1.83235 -9.60553 34.741
 879 1 1.83235 -9.60553 36.159
 880 1 3.0218 -9.30013 36.868
 881 1 3.0218 -9.30013 34.032
 882 1 4.16358 -8.84807 34.741
 883 1 4.16358 -8.84807 36.159
 884 1 5.23971 -8.25646 36.868
 885 1 5.23971 -8.25646 34.032
 886 1 6.2332 -7.53465 34.741
 887 1 6.2332 -7.53465 36.159
 888 1 7.12839 -6.69401 36.868
 889 1 7.12839 -6.69401 34.032
 890 1 7.91116 -5.7478 34.741
 891 1 7.91116 -5.7478 36.159
 892 1 8.56917 -4.71094 36.868
 893 1 8.56917 -4.71094 34.032
 894 1 9.09204 -3.59979 34.741
 895 1 9.09204 -3.59979 36.159
 896 1 9.47152 -2.43187 36.868
 897 1 9.47152 -2.43187 34.032
 898 1 9.70163 -1.2256 34.741
 899 1 9.70163 -1.2256 36.159
 900 1 9.77874 -1.10804e-14 36.868
 901 1 9.77874 0 38.286
 902 1 9.70163 1.2256 38.995
 903 1 9.70163 1.2256 40.413
 904 1 9.47152 2.43187 41.122
 905 1 9.47152 2.43187 38.286
 906 1 9.09204 3.59979 38.995
 907 1 9.09204 3.59979 40.413
 908 1 8.56917 4.71094 41.122
 909 1 8.56917 4.71094 38.286
 910 1 7.91116 5.7478 38.995
 911 1 7.91116 5.7478 40.413
 912 1 7.12839 6.69401 41.122
 913 1 7.12839 6.69401 38.286
 914 1 6.2332 7.53465 38.995
 915 1 6.2332 7.53465 40.413
 916 1 5.23971 8.25646 41.122
 917 1 5.23971 8.25646 38.286
 918 1 4.16358 8.84807 38.995
 919 1 4.16358 8.84807 40.413
 920 1 3.0218 9.30013 41.122
 921 1 3.0218 9.30013 38.286
 922 1 1.83235 9.60553 38.995
 923 1 1.83235 9.60553 40.413
 924 1 0.614012 9.75944 41.122
 925 1 0.614012 9.75944 38.286
 926 1 -0.614012 9.75944 38.995
 927 1 -0.614012 9.75944 40.413
 928 1 -1.83235 9.60553 41.122
 929 1 -1.83235 9.60553 38.286
 930 1 -3.0218 9.30013 38.995
 931 1 -3.0218 9.30013 40.413
 932 1 -4.16358 8.84807 41.122
 933 1 -4.16358 8.84807 38.286
 934 1 -5.23971 8.25646 38.995
 935 1 -5.23971 8.25646 40.413
 936 1 -6.2332 7.53465 41.122
 937 1 -6.2332 7.53465 38.286
 938 1 -7.12839 6.69401 38.995
 939 1 -7.12839 6.69401 40.413
 940 1 -7.91116 5.7478 41.122
 941 1 -7.91116 5.7478 38.286
 942 1 -8.56917 4.71094 38.995
 943 1 -8.56917 4.71094 40.413
 944 1 -9.09204 3.59979 41.122
 945 1 -9.09204 3.59979 38.286
 946 1 -9.47152 2.43187 38.995
 947 1 -9.47152 2.43187 40.413
 948 1 -9.70163 1.2256 41.122
 949 1 -9.70163 1.2256 38.286
 950 1 -9.77874 1.19755e-15 38.995
 951 1 -9.77874 5.54018e-15 40.413
 952 1 -9.70163 -1.2256 41.122
 953 1 -9.70163 -1.2256 38.286
 954 1 -9.47152 -2.43187 38.995
 955 1 -9.47152 -2.43187 40.413
 956 1 -9.09204 -3.59979 41.122
 957 1 -9.09204 -3.59979 38.286
 958 1 -8.56917 -4.71094 38.995
 959 1 -8.56917 -4.71094 40.413
 960 1 -7.91116 -5.7478 41.122
 961 1 -7.91116 -5.7478 38.286
 962 1 -7.12839 -6.69401 38.995
 963 1 -7.12839 -6.69401 40.413
 964 1 -6.2332 -7.53465 41.122
 965 1 -6.2332 -7.53465 38.286
 966 1 -5.23971 -8.25646 38.995
 967 1 -5.23971 -8.25646 40.413
 968 1 -4.16358 -8.84807 41.122
 969 1 -4.16358 -8.84807 38.286
 970 1 -3.0218 -9.30013 38.995
 971 1 -3.0218 -9.30013 40.413
 972 1 -1.83235 -9.60553 41.122
 973 1 -1.83235 -9.60553 38.286
 974 1 -0.614012 -9.75944 38.995
 975 1 -0.614012 -9.75944 40.413
 976 1 0.614012 -9.75944 41.122
 977 1 0.614012 -9.75944 38.286
 978 1 1.83235 -9.60553 38.995
 979 1 1.83235 -9.60553 40.413
 980 1 3.0218 -9.30013 41.122
 981 1 3.0218 -9.30013 38.286
 982 1 4.16358 -8.84807 38.995
 983 1 4.16358 -8.84807 40.413
 984 1 5.23971 -8.25646 41.122
 985 1 5.23971 -8.25646 38.286
 986 1 6.2332 -7.53465 38.995