ITEM: TIMESTEP
200
ITEM: NUMBER OF ATOMS
4700
ITEM: BOX BOUNDS pp pp pp
-1.1778740000000001e+01 1.1778740000000001e+01
-1.1759440000000000e+01 1.1759440000000000e+01
-7.0899999999999996e-01 1.9922900000000001e+02
ITEM: ATOMS id type x y z
58 1 -7.96078 -4.4437 0.679058
59 1 -8.00979 -4.40987 2.10232
60 1 -7.5575 -5.5422 2.82417
61 1 -7.39533 -5.49881 -0.0486903
62 1 -6.75601 -6.49188 0.698597
63 1 -6.8191 -6.5014 2.10873
64 1 -6.07452 -7.43165 2.83553
65 1 -5.97906 -7.41895 0.00188453
66 1 -5.13874 -8.32923 0.691915
67 1 -5.12895 -8.18233 2.17968
68 1 -4.07583 -8.80131 2.80682
69 1 -4.14097 -8.96204 -0.0452165
158 1 -8.0601 -4.50462 4.94001
161 1 -7.57966 -5.60388 4.24082
162 1 -6.94331 -6.58935 5.00615
165 1 -6.20973 -7.5157 4.27314
166 1 -5.1656 -8.22533 4.94017
169 1 -4.095 -8.75352 4.22439
70 1 -3.03869 -9.39571 0.657992
71 1 -2.9642 -9.29652 2.0943
72 1 -1.80414 -9.55083 2.80844
73 1 -1.7779 -9.50146 -0.0747117
74 1 -0.60894 -9.59267 0.66184
75 1 -0.66224 -9.64897 2.07477
76 1 0.557876 -9.52987 2.73495
77 1 0.558657 -9.64229 -0.0854409
78 1 1.76079 -9.3894 0.620614
79 1 1.75643 -9.36589 2.04647
80 1 2.91476 -9.04444 2.82758
81 1 2.99174 -9.25836 -0.0982833
170 1 -2.99682 -9.14791 4.93632
173 1 -1.83096 -9.43676 4.22386
174 1 -0.58993 -9.51951 4.91356
177 1 0.626552 -9.53698 4.15998
178 1 1.81192 -9.44307 4.92327
181 1 2.92978 -9.07916 4.22846
82 1 4.09141 -8.80199 0.642912
83 1 4.10345 -8.80674 2.11335
84 1 5.13224 -8.07019 2.76578
85 1 5.169 -8.23115 -0.0790216
86 1 6.07903 -7.44814 0.700271
87 1 6.1234 -7.44423 2.06264
88 1 6.87249 -6.52148 2.76992
89 1 6.95083 -6.52522 -0.016396
90 1 7.72901 -5.55276 0.714202
91 1 7.65232 -5.53315 2.10591
92 1 8.30955 -4.55814 2.88642
93 1 8.33924 -4.51846 0.0232761
182 1 4.08379 -8.75205 4.93398
185 1 5.18458 -8.18755 4.17556
186 1 6.09931 -7.40421 4.95473
189 1 6.9505 -6.60191 4.17958
190 1 7.66359 -5.62935 4.97484
193 1 8.33812 -4.58248 4.30718
44 1 -9.03241 3.65842 2.83114
45 1 -9.07299 3.64271 -0.0307973
46 1 -9.36822 2.49625 0.679035
47 1 -9.42181 2.50859 2.1108
48 1 -9.67198 1.28481 2.80776
49 1 -9.54953 1.32868 -0.0524991
50 1 -9.53638 0.129334 0.6636
51 1 -9.54262 0.0783356 2.09226
52 1 -9.40021 -1.1115 2.82385
53 1 -9.44483 -1.09906 -0.0380472
54 1 -9.11632 -2.24962 0.72448
55 1 -9.02589 -2.24364 2.11679
56 1 -8.58594 -3.3474 2.82797
57 1 -8.5738 -3.33926 -0.0212722
145 1 -8.94873 3.56489 4.25992
146 1 -9.33091 2.42331 4.98276
149 1 -9.62003 1.24159 4.23967
150 1 -9.74201 0.0664979 4.96292
153 1 -9.48026 -1.10276 4.24716
154 1 -9.07574 -2.27374 4.98639
157 1 -8.57365 -3.40558 4.25273
1 1 9.63815 0.05456 0.0802034
2 1 9.49051 1.25357 0.753282
3 1 9.5068 1.30598 2.16479
4 1 9.06752 2.40318 2.96851
5 1 9.30379 2.43853 0.0254846
6 1 8.7991 3.51321 0.76796
7 1 8.63237 3.47243 2.16618
94 1 8.89743 -3.51581 0.729778
95 1 8.86755 -3.41988 2.15443
96 1 9.35385 -2.34596 2.88285
97 1 9.1438 -2.3201 0.0299953
98 1 9.43655 -1.16893 0.776645
99 1 9.45068 -1.13755 2.19406
100 1 9.63822 0.0597621 2.90284
101 1 9.57822 -0.0110398 4.31548
102 1 9.50499 1.21518 4.99759
105 1 9.18884 2.39707 4.35442
106 1 8.71409 3.47986 5.05389
194 1 8.8649 -3.50402 4.96058
197 1 9.25461 -2.34719 4.28025
198 1 9.56412 -1.19003 5.03408
32 1 -4.117 8.66324 2.89171
33 1 -4.07752 8.68335 0.0191738
34 1 -5.12272 8.06616 0.692339
35 1 -5.24329 8.19254 2.1461
36 1 -6.19262 7.43284 2.87311
37 1 -6.05305 7.25587 -0.0333945
38 1 -6.96295 6.49463 0.703333
39 1 -6.98117 6.55726 2.10363
40 1 -7.72109 5.65462 2.82693
41 1 -7.81461 5.66591 -0.0542018
42 1 -8.57444 4.74475 0.678145
43 1 -8.5255 4.73407 2.11266
133 1 -4.14329 8.70792 4.31607
134 1 -5.15691 8.11063 5.03793
137 1 -6.18908 7.48267 4.30718
138 1 -7.10966 6.6732 5.02166
141 1 -7.7811 5.6731 4.2735
142 1 -8.34218 4.63395 4.98107
20 1 2.98713 9.23942 2.89478
21 1 2.95252 9.2173 0.0297837
22 1 1.75687 9.54292 0.766335
23 1 1.81848 9.58158 2.19629
24 1 0.607278 9.5347 2.88422
25 1 0.523484 9.62945 0.0656591
26 1 -0.651476 9.52547 0.763167
27 1 -0.603347 9.39961 2.18611
28 1 -1.76581 9.24916 2.94588
29 1 -1.8472 9.40525 0.0618807
30 1 -2.9509 8.95617 0.726696
31 1 -2.96345 8.97201 2.16814
121 1 2.96882 9.24249 4.30694
122 1 1.76957 9.23206 5.01337
125 1 0.607612 9.51234 4.30737
126 1 -0.585132 9.51419 5.02981
129 1 -1.79399 9.35226 4.34505
130 1 -2.98688 9.1538 5.05247
8 1 8.24523 4.61819 2.85689
9 1 8.2453 4.5611 -0.0102279
10 1 7.63069 5.58789 0.706354
11 1 7.58659 5.59408 2.09061
12 1 6.91727 6.5908 2.83189
13 1 6.81749 6.48097 -0.0236672
14 1 6.0421 7.37961 0.743666
15 1 5.96499 7.30188 2.12842
16 1 5.0835 8.05112 2.86766
17 1 5.07567 8.14104 0.0273276
18 1 4.00649 8.64147 0.770568
19 1 3.96215 8.60002 2.1696
109 1 8.12354 4.55784 4.30286
110 1 7.55251 5.61366 5.01594
113 1 6.9044 6.57447 4.26573
114 1 6.06987 7.42322 4.9997
117 1 5.08199 8.17894 4.31538
118 1 4.04393 8.62757 5.07819
159 1 -8.12648 -4.48694 6.36361
160 1 -7.63887 -5.58862 7.07377
163 1 -6.97815 -6.6393 6.38848
164 1 -6.05834 -7.46571 7.0663
167 1 -5.15007 -8.24219 6.36507
168 1 -4.1125 -8.82104 7.11548
258 1 -8.31502 -4.55844 9.17938
259 1 -8.32048 -4.60363 10.5759
260 1 -7.66226 -5.60932 11.299
261 1 -7.6629 -5.62244 8.51157
262 1 -6.92876 -6.58976 9.15553
263 1 -6.90058 -6.55909 10.562
264 1 -6.12469 -7.4515 11.3032
265 1 -6.14146 -7.46333 8.45717
266 1 -5.18903 -8.22873 9.25052
267 1 -5.14288 -8.1747 10.6337
268 1 -4.08964 -8.66794 11.4235
269 1 -4.12958 -8.88617 8.5643
171 1 -2.97866 -9.15372 6.36876
172 1 -1.79847 -9.3894 7.10351
175 1 -0.550724 -9.38439 6.36328
176 1 0.631368 -9.44138 7.10988
179 1 1.76598 -9.31247 6.3699
180 1 2.93899 -9.08964 7.08687
270 1 -2.95927 -9.22587 9.26173
271 1 -2.92492 -9.08871 10.6805
272 1 -1.7841 -9.41899 11.4113
273 1 -1.78036 -9.36159 8.52714
274 1 -0.604195 -9.40437 9.26246
275 1 -0.60816 -9.38985 10.6524
276 1 0.619351 -9.51378 11.3626
277 1 0.585066 -9.40308 8.5148
278 1 1.81377 -9.31046 9.20151
279 1 1.79672 -9.61061 10.6035
280 1 2.96801 -9.31613 11.3236
281 1 3.00632 -9.1732 8.49005
183 1 4.05539 -8.65316 6.33702
184 1 5.13491 -8.2119 7.05525
187 1 6.08648 -7.46429 6.34889
188 1 7.01297 -6.68146 7.05401
191 1 7.844 -5.77067 6.3491
192 1 8.32829 -4.67136 7.09846
282 1 4.14391 -8.79735 9.2191
283 1 4.13143 -8.86297 10.6195
284 1 5.13659 -8.24778 11.3521
285 1 5.16101 -8.13091 8.49862
286 1 6.11387 -7.47817 9.23568
287 1 6.0339 -7.37979 10.6239
288 1 6.99316 -6.67803 11.3184
289 1 6.91834 -6.60642 8.48904
290 1 7.74083 -5.66311 9.19539
291 1 7.78958 -5.75912 10.6343
292 1 8.34782 -4.66349 11.3407
293 1 8.41987 -4.68023 8.51727
144 1 -8.90348 3.56302 7.16814
147 1 -9.26593 2.43273 6.39384
148 1 -9.47423 1.26767 7.07022
151 1 -9.66824 0.0405163 6.3781
152 1 -9.46876 -1.17469 7.09376
155 1 -9.14801 -2.28183 6.3892
156 1 -8.69758 -3.39294 7.08445
244 1 -9.05166 3.59206 11.3684
245 1 -9.04478 3.56384 8.56741
246 1 -9.33672 2.40773 9.24624
247 1 -9.50076 2.45118 10.6547
248 1 -9.58485 1.22659 11.3778
249 1 -9.48654 1.21344 8.51358
250 1 -9.48671 0.0409986 9.22081
251 1 -9.5527 0.0296878 10.6313
252 1 -9.33138 -1.17973 11.3314
253 1 -9.45075 -1.16678 8.49231
254 1 -9.23187 -2.35517 9.20156
255 1 -9.12038 -2.35403 10.5953
256 1 -8.81017 -3.51934 11.3303
257 1 -8.75451 -3.41518 8.48074
103 1 9.55545 1.23189 6.43713
104 1 9.11462 2.3327 7.14944
107 1 8.77989 3.50496 6.46679
195 1 8.8901 -3.52545 6.39657
196 1 9.21052 -2.38803 7.12489
199 1 9.36864 -1.16457 6.40061
200 1 9.55157 0.0302809 7.10709
201 1 9.45268 -0.0196121 8.52682
202 1 9.42503 1.1678 9.23604
203 1 9.49701 1.19015 10.6311
204 1 9.01687 2.36526 11.366
205 1 9.13235 2.31021 8.55543
206 1 8.68221 3.4436 9.26834
207 1 8.7663 3.53291 10.6537
294 1 8.99266 -3.60847 9.1984
295 1 8.9768 -3.59587 10.6086
296 1 9.1333 -2.39726 11.302
297 1 9.32391 -2.42677 8.51398
298 1 9.56987 -1.21431 9.24558
299 1 9.44983 -1.20356 10.6689
300 1 9.5172 -0.0174682 11.3827
132 1 -4.1456 8.71038 7.11573
135 1 -5.25157 8.15568 6.48075
136 1 -6.24503 7.44475 7.15161
139 1 -7.16744 6.65695 6.45454
140 1 -7.91666 5.71856 7.11081
143 1 -8.42894 4.66188 6.41385
232 1 -4.23366 8.86217 11.4276
233 1 -4.15016 8.67849 8.51319
234 1 -5.29982 8.29277 9.2714
235 1 -5.29307 8.2467 10.6719
236 1 -6.2748 7.50927 11.3952
237 1 -6.22396 7.45961 8.57163
238 1 -7.13632 6.64259 9.26013
239 1 -7.04035 6.61114 10.6761
240 1 -7.62907 5.54951 11.3892
241 1 -7.99677 5.791 8.52269
242 1 -8.57311 4.71447 9.24182
243 1 -8.48223 4.67468 10.682
120 1 2.92899 9.01356 7.16574
123 1 1.78963 9.32878 6.443
124 1 0.581412 9.40829 7.18464
127 1 -0.623867 9.49416 6.46126
128 1 -1.84155 9.38931 7.16502
131 1 -3.03319 9.18899 6.45693
220 1 2.97964 9.16091 11.3776
221 1 2.90982 9.01612 8.57567
222 1 1.77029 9.22574 9.32804
223 1 1.77095 9.34157 10.6946
224 1 0.566396 9.52629 11.4383
225 1 0.615421 9.35106 8.57528
226 1 -0.615842 9.47224 9.28746
227 1 -0.643246 9.45925 10.6861
228 1 -1.81851 9.27901 11.4269
229 1 -1.84551 9.4198 8.59479
230 1 -3.01141 9.12018 9.26869
231 1 -3.00711 9.1235 10.6963
108 1 8.2429 4.54681 7.17326
111 1 7.61803 5.59739 6.48125
112 1 6.97168 6.64891 7.18235
115 1 6.08527 7.44376 6.45278
116 1 5.05821 7.99538 7.20239
119 1 4.03705 8.65369 6.46856
208 1 8.29593 4.61783 11.3738
209 1 8.26017 4.63072 8.57472
210 1 7.66299 5.65435 9.28382
211 1 7.65992 5.61191 10.654
212 1 6.84715 6.45175 11.3901
213 1 6.93049 6.62381 8.59874
214 1 6.09147 7.44095 9.33192
215 1 6.11256 7.4873 10.7226
216 1 5.13805 8.13627 11.4555
217 1 5.11253 8.15543 8.60109
218 1 4.04635 8.60258 9.3331
219 1 4.12481 8.74071 10.6869
358 1 -8.2305 -4.57083 13.4685
359 1 -8.3015 -4.5865 14.8656
360 1 -7.61219 -5.53159 15.5787
361 1 -7.73773 -5.67276 12.7454
362 1 -6.85576 -6.51208 13.4685
363 1 -6.91037 -6.50141 14.8794
364 1 -6.09778 -7.36692 15.6352
365 1 -6.10261 -7.42216 12.7444
366 1 -5.12816 -8.12088 13.5094
367 1 -5.20737 -8.16332 14.9017
368 1 -4.11456 -8.67443 15.5922
369 1 -4.04584 -8.60885 12.8232
458 1 -8.33748 -4.52638 17.7077
461 1 -7.65519 -5.52891 17.0147
462 1 -6.91059 -6.41884 17.705
465 1 -6.01605 -7.24863 17.0309
466 1 -5.14857 -8.10361 17.724
469 1 -4.07365 -8.67202 17.0124
370 1 -2.94448 -9.00456 13.507
371 1 -2.96762 -9.12714 14.8927
372 1 -1.78088 -9.37298 15.5877
373 1 -1.75964 -9.33323 12.7945
374 1 -0.585104 -9.42874 13.5281
375 1 -0.567039 -9.60726 14.9369
376 1 0.612597 -9.62204 15.6301
377 1 0.584828 -9.55968 12.7547
378 1 1.76503 -9.36293 13.4996
379 1 1.74813 -9.45815 14.8866
380 1 2.87353 -9.06818 15.5886
381 1 2.95088 -9.16218 12.7264
470 1 -2.9467 -9.14454 17.7346
473 1 -1.82336 -9.56112 16.9759
474 1 -0.637606 -9.76409 17.7543
477 1 0.609552 -9.77352 16.9924
478 1 1.7861 -9.60239 17.7186
481 1 2.92148 -9.11271 16.9991
382 1 4.02117 -8.65787 13.4616
383 1 3.95575 -8.57724 14.8626
384 1 5.0712 -8.10605 15.6505
385 1 5.14403 -8.23144 12.7771
386 1 6.17223 -7.56242 13.5098
387 1 6.11679 -7.47113 14.9279
388 1 7.00737 -6.61869 15.6487
389 1 7.06231 -6.74407 12.7348
390 1 7.69167 -5.7073 13.5189
391 1 7.7152 -5.65328 14.9133
392 1 8.36016 -4.60509 15.5933
393 1 8.31135 -4.68076 12.7841
482 1 3.97697 -8.66108 17.763
485 1 5.03904 -8.06139 17.0656
486 1 5.97325 -7.30431 17.7345
489 1 6.87647 -6.51391 17.058
490 1 7.71552 -5.59517 17.6881
493 1 8.29684 -4.55275 17.002
344 1 -8.9186 3.48854 15.6143
345 1 -9.01978 3.5641 12.7742
346 1 -9.4329 2.43198 13.4873
347 1 -9.33805 2.4104 14.9145
348 1 -9.57263 1.26257 15.6293
349 1 -9.67957 1.2106 12.8076
350 1 -9.59992 -0.0576856 13.526
351 1 -9.52437 0.0319736 14.934
352 1 -9.385 -1.14709 15.6505
353 1 -9.26348 -1.19984 12.7494
354 1 -9.14462 -2.36115 13.5148
355 1 -9.18744 -2.35428 14.912
356 1 -8.77245 -3.47421 15.6356
357 1 -8.7422 -3.48435 12.7605
445 1 -8.92605 3.52339 17.0318
446 1 -9.48591 2.47962 17.7067
449 1 -9.60743 1.28719 17.0587
450 1 -9.58215 0.110171 17.7468
453 1 -9.4449 -1.14563 17.0779
454 1 -9.05603 -2.28672 17.7624
457 1 -8.73055 -3.42188 17.0012
301 1 9.4398 -0.0165484 12.7774
302 1 9.28774 1.17869 13.452
303 1 9.31107 1.14335 14.8826
304 1 9.23139 2.34125 15.6002
305 1 9.12452 2.35455 12.7446
306 1 8.87215 3.53668 13.4299
307 1 8.8744 3.5282 14.8903
394 1 8.61195 -3.47411 13.4427
395 1 8.82953 -3.5026 14.8664
396 1 9.27555 -2.37788 15.5931
397 1 9.16184 -2.37242 12.7449
398 1 9.39869 -1.2123 13.4773
399 1 9.43176 -1.23503 14.8475
400 1 9.47913 -0.0816788 15.5972
401 1 9.54279 -0.0621524 16.9924
402 1 9.3584 1.16677 17.7201
405 1 9.28628 2.3701 17.0114
406 1 8.96497 3.5413 17.7111
494 1 8.96804 -3.53372 17.6866
497 1 9.38958 -2.39608 16.9864
498 1 9.32797 -1.20865 17.7104
332 1 -3.99882 8.4312 15.6725
333 1 -4.15247 8.72139 12.8618
334 1 -5.20253 8.07942 13.549
335 1 -5.11417 7.92181 14.955
336 1 -6.15528 7.35281 15.6707
337 1 -6.1879 7.39341 12.8251
338 1 -7.03383 6.57381 13.5588
339 1 -7.08499 6.55497 14.9759
340 1 -7.92763 5.64413 15.635
341 1 -7.67385 5.54566 12.8227
342 1 -8.33425 4.52851 13.466
343 1 -8.39762 4.56706 14.908
433 1 -3.96781 8.42418 17.0783
434 1 -5.02702 7.83577 17.7661
437 1 -6.07023 7.19231 17.0754
438 1 -7.07479 6.54279 17.7376
441 1 -7.83455 5.62893 17.0542
442 1 -8.50838 4.64348 17.7222
320 1 2.98149 9.21357 15.6723
321 1 2.95752 9.11643 12.7803
322 1 1.78002 9.40471 13.533
323 1 1.86325 9.56119 14.9733
324 1 0.646433 9.59545 15.6695
325 1 0.564153 9.57064 12.8217
326 1 -0.609001 9.592 13.5562
327 1 -0.580414 9.65657 14.965
328 1 -1.75734 9.38453 15.7214
329 1 -1.82499 9.41649 12.8087
330 1 -2.9793 9.09583 13.559
331 1 -2.93072 8.99491 14.9531
421 1 2.96268 9.24471 17.0794
422 1 1.79835 9.5242 17.8274
425 1 0.675208 9.74246 17.0295
426 1 -0.540614 9.71737 17.7917
429 1 -1.77228 9.37274 17.1179
430 1 -2.9334 9.02989 17.7957
308 1 8.39571 4.66604 15.6146
309 1 8.17063 4.4955 12.7613
310 1 7.58827 5.52666 13.5167
311 1 7.61838 5.57214 14.9564
312 1 6.85791 6.48562 15.6663
313 1 6.90352 6.51217 12.7772
314 1 5.97097 7.27243 13.5043
315 1 6.01931 7.2725 14.891
316 1 5.10344 8.05029 15.6315
317 1 5.12764 8.15831 12.84
318 1 4.07057 8.74015 13.5483
319 1 4.01815 8.64087 14.9392
409 1 8.48764 4.65551 17.0392
410 1 7.6697 5.52079 17.7384
413 1 6.9491 6.48091 17.0636
414 1 6.09986 7.37067 17.8046
417 1 5.08902 8.03864 17.0583
418 1 4.10135 8.80315 17.7808
459 1 -8.38289 -4.49847 19.1186
460 1 -7.57436 -5.45549 19.8344
463 1 -6.83911 -6.40228 19.0821
464 1 -6.01938 -7.24255 19.8325
467 1 -5.1168 -8.02194 19.1123
468 1 -4.1261 -8.7018 19.8341
558 1 -8.31937 -4.46937 21.9785
559 1 -8.27032 -4.38616 23.4224
560 1 -7.81336 -5.55126 24.0933
561 1 -7.71705 -5.52452 21.2357
562 1 -6.92275 -6.43293 21.9348
563 1 -6.96475 -6.45922 23.3705
564 1 -6.10842 -7.34799 24.0853
565 1 -6.04497 -7.24327 21.2362
566 1 -5.14924 -7.98486 21.9881
567 1 -5.11259 -8.03737 23.3862
568 1 -4.084 -8.61972 24.1243
569 1 -4.06851 -8.53529 21.2735
471 1 -2.91944 -9.0074 19.1557
472 1 -1.81409 -9.43337 19.8728
475 1 -0.568967 -9.58014 19.1404
476 1 0.626317 -9.69733 19.8558
479 1 1.82541 -9.52609 19.1354
480 1 2.94472 -9.16381 19.8791
570 1 -3.02914 -9.11284 21.9996
571 1 -3.02158 -9.13666 23.3796
572 1 -1.85355 -9.49192 24.1218
573 1 -1.89366 -9.42043 21.2709
574 1 -0.677634 -9.61822 21.9503
575 1 -0.639448 -9.61786 23.3349
576 1 0.543766 -9.56088 24.1053
577 1 0.510568 -9.67523 21.2339
578 1 1.68846 -9.36665 21.9436
579 1 1.74741 -9.3439 23.3417
580 1 2.90362 -9.08285 24.1198
581 1 2.87495 -9.06568 21.2833
483 1 4.00459 -8.63856 19.1431
484 1 4.99876 -7.95436 19.8748
487 1 5.96767 -7.23344 19.1478
488 1 6.91933 -6.52827 19.8788
491 1 7.76341 -5.64817 19.1597
492 1 8.49039 -4.64435 19.9009
582 1 3.99407 -8.48253 22.0178
583 1 4.00596 -8.54046 23.4311
584 1 5.07419 -7.95435 24.1416
585 1 5.04155 -7.91511 21.2657
586 1 6.07577 -7.30184 21.9777
587 1 6.02747 -7.26678 23.4002
588 1 6.92907 -6.45689 24.0866
589 1 6.97665 -6.4757 21.2709
590 1 7.7645 -5.57263 22.0057
591 1 7.73061 -5.53463 23.4113
592 1 8.43452 -4.55979 24.1371
593 1 8.45379 -4.59868 21.3135
444 1 -9.08715 3.64044 19.8586
447 1 -9.46593 2.47824 19.157
448 1 -9.58917 1.33033 19.9141
451 1 -9.63098 0.132471 19.1656
452 1 -9.50126 -1.09915 19.8948
455 1 -9.26493 -2.31101 19.1539
456 1 -8.88721 -3.44754 19.8686
544 1 -9.08852 3.64718 24.2201
545 1 -9.14471 3.66531 21.3332
546 1 -9.43314 2.48905 22.0563
547 1 -9.37649 2.51346 23.5093
548 1 -9.62514 1.27994 24.1461
549 1 -9.54075 1.29128 21.3024
550 1 -9.63437 0.111298 21.9994
551 1 -9.50707 0.102009 23.4216
552 1 -9.4956 -1.0912 24.137
553 1 -9.31422 -1.04562 21.2647
554 1 -9.21848 -2.242 21.9808
555 1 -9.1609 -2.22316 23.3973
556 1 -8.74071 -3.28913 24.1484
557 1 -8.7921 -3.35294 21.2429
403 1 9.49634 1.19318 19.1544
404 1 9.42006 2.40642 19.8669
407 1 9.06342 3.53194 19.1441
495 1 8.92444 -3.52001 19.1369
496 1 9.05619 -2.33131 19.9112
499 1 9.34385 -1.19388 19.1325
500 1 9.41787 0.0108814 19.8543
501 1 9.54956 0.0632135 21.2654
502 1 9.6951 1.23867 21.9786
503 1 9.61503 1.21563 23.4225
504 1 9.22506 2.36563 24.1863
505 1 9.44399 2.39925 21.2916
506 1 9.08313 3.58775 22.0229
507 1 8.99171 3.57342 23.4964
594 1 8.91989 -3.50555 21.9948
595 1 8.97057 -3.48096 23.4055
596 1 9.3606 -2.36163 24.1382
597 1 9.15653 -2.29622 21.2899
598 1 9.43659 -1.15028 22.0107
599 1 9.52398 -1.13334 23.4174
600 1 9.66392 -0.00225341 24.1623
432 1 -4.04154 8.47471 19.9031
435 1 -5.15023 7.98037 19.169
436 1 -6.09765 7.28334 19.8971
439 1 -7.08886 6.59241 19.1806
440 1 -7.8269 5.6066 19.92
443 1 -8.51985 4.67959 19.1671
532 1 -4.00141 8.50416 24.1638
533 1 -3.99849 8.50512 21.313
534 1 -5.04955 8.00481 22.0268
535 1 -5.1015 8.04007 23.4529
536 1 -6.12268 7.39635 24.1178
537 1 -6.15704 7.40642 21.3284
538 1 -7.02172 6.53348 22.0458
539 1 -7.05506 6.61151 23.4449
540 1 -7.94883 5.78625 24.0874
541 1 -7.86899 5.68134 21.3226
542 1 -8.59644 4.76035 21.9877
543 1 -8.6244 4.75536 23.3991
420 1 2.93221 9.13935 19.9166
423 1 1.82459 9.60292 19.2149
424 1 0.624086 9.70031 19.9122
427 1 -0.581123 9.66037 19.1753
428 1 -1.80314 9.32638 19.8821
431 1 -2.94016 8.90868 19.1543
520 1 2.96173 9.31437 24.156
521 1 2.90703 9.2124 21.3319
522 1 1.7648 9.56748 22.0508
523 1 1.75397 9.5625 23.4624
524 1 0.556793 9.75856 24.1277
525 1 0.597307 9.73227 21.3149
526 1 -0.602903 9.6007 22.0202
527 1 -0.620925 9.61999 23.4196
528 1 -1.7747 9.4302 24.1321
529 1 -1.74733 9.20969 21.2988
530 1 -2.91983 8.90946 22.0265
531 1 -2.90679 9.02395 23.4249
518 1 3.92605 8.62082 22.0385
408 1 8.485 4.6154 19.8642
411 1 7.65139 5.49077 19.1197
412 1 6.88877 6.42905 19.855
415 1 5.99012 7.29036 19.2253
416 1 4.99698 8.01122 19.9485
419 1 4.09218 8.73889 19.2289
508 1 8.38818 4.6443 24.1738
509 1 8.41399 4.60442 21.2777
510 1 7.75832 5.61252 22.0343
511 1 7.71755 5.63841 23.423
512 1 6.82193 6.43292 24.1356
513 1 6.86307 6.4705 21.2792
514 1 5.89498 7.2544 22.0291
515 1 5.88608 7.18809 23.4273
516 1 4.94551 7.87815 24.1938
517 1 4.94419 7.93823 21.3228
519 1 3.9894 8.63259 23.4643
658 1 -8.37401 -4.54651 26.2435
659 1 -8.34263 -4.49308 27.6578
660 1 -7.62323 -5.46042 28.4147
661 1 -7.79823 -5.58825 25.4898
662 1 -7.03159 -6.57551 26.1965
663 1 -6.89879 -6.41704 27.6614
664 1 -6.10889 -7.36631 28.4059
665 1 -6.05669 -7.22107 25.4649
666 1 -5.1091 -7.92808 26.2463
667 1 -5.12867 -8.03396 27.6395
668 1 -4.119 -8.6705 28.3849
669 1 -4.06763 -8.56762 25.5272
758 1 -8.29354 -4.42215 30.4837
761 1 -7.62429 -5.48359 29.8195
765 1 -6.02436 -7.19069 29.7597
766 1 -5.09261 -7.96658 30.4751
769 1 -4.0524 -8.60639 29.7927
670 1 -2.92659 -9.02318 26.2224
671 1 -2.97952 -9.10543 27.6208
672 1 -1.76703 -9.3022 28.3289
673 1 -1.80199 -9.47182 25.5294
674 1 -0.57102 -9.52889 26.2182
675 1 -0.571082 -9.36287 27.5851
676 1 0.597004 -9.34297 28.3478
677 1 0.607824 -9.43049 25.5
678 1 1.75613 -9.36653 26.2597
679 1 1.82492 -9.32587 27.6618
680 1 2.95903 -9.06338 28.3938
681 1 2.92369 -9.039 25.5628
770 1 -2.91747 -9.09503 30.4538
773 1 -1.75887 -9.35313 29.7594
774 1 -0.535315 -9.54814 30.4947
777 1 0.636051 -9.44865 29.743
778 1 1.83002 -9.28869 30.4226
781 1 3.00183 -8.98491 29.7842
682 1 4.01247 -8.51802 26.2213
683 1 4.0329 -8.50064 27.6432
684 1 5.07428 -7.96879 28.3892
685 1 5.08027 -8.00717 25.5282
686 1 6.03293 -7.25163 26.2405
687 1 6.0173 -7.24034 27.6481
688 1 7.00415 -6.47312 28.4191
689 1 7.07598 -6.58343 25.515
690 1 7.77969 -5.63955 26.2752
691 1 7.89043 -5.66317 27.6677
692 1 8.4854 -4.64247 28.4326
693 1 8.50373 -4.66171 25.5825
782 1 4.09658 -8.55518 30.516
785 1 5.10973 -7.94288 29.8009
786 1 6.18116 -7.30052 30.5138
789 1 7.00178 -6.4647 29.8178
790 1 7.7723 -5.56118 30.5118
793 1 8.45991 -4.56658 29.8077
644 1 -8.88779 3.61189 28.3835
645 1 -9.06015 3.63519 25.5903
646 1 -9.37505 2.43944 26.2368
647 1 -9.34729 2.47402 27.6595
648 1 -9.66949 1.26088 28.3492
649 1 -9.65815 1.28854 25.5294
650 1 -9.66538 0.0715284 26.2336
651 1 -9.65553 0.0207187 27.6679
652 1 -9.56864 -1.15118 28.3985
653 1 -9.49155 -1.15332 25.5261
654 1 -9.22994 -2.30723 26.2407
655 1 -9.24353 -2.25427 27.6505
656 1 -8.87438 -3.38556 28.3801
657 1 -8.7939 -3.42571 25.5504
745 1 -8.9343 3.61183 29.8046
746 1 -9.4924 2.45829 30.4967
749 1 -9.73031 1.26473 29.7549
750 1 -9.83651 0.052102 30.4569
753 1 -9.52083 -1.09776 29.7888
754 1 -9.23181 -2.26058 30.4905
757 1 -8.90623 -3.40943 29.7542
601 1 9.62339 -0.0473412 25.6112
602 1 9.52751 1.14712 26.3154
603 1 9.62424 1.17413 27.7361
604 1 9.46769 2.38386 28.3675
605 1 9.28936 2.35002 25.6103
606 1 8.98744 3.51365 26.282
607 1 9.01203 3.51899 27.7021
694 1 8.95547 -3.50195 26.2842
695 1 8.99534 -3.57526 27.7191
696 1 9.38676 -2.39762 28.4673
697 1 9.32098 -2.42773 25.555
698 1 9.55779 -1.24569 26.287
699 1 9.57264 -1.22884 27.7202
700 1 9.87594 -0.0100041 28.3611
701 1 9.8305 -0.0438073 29.8142
702 1 9.84834 1.21532 30.4796
705 1 9.39945 2.38372 29.7824
706 1 8.82236 3.44241 30.4796
794 1 8.95235 -3.47082 30.5298
797 1 9.30797 -2.33687 29.8544
632 1 -3.99065 8.64454 28.34
633 1 -4.02504 8.66156 25.5805
634 1 -5.11478 8.07733 26.269
635 1 -5.05419 7.98045 27.6929
636 1 -6.09277 7.3728 28.3923
637 1 -6.18619 7.45298 25.4945
638 1 -7.16713 6.72786 26.2407
639 1 -7.06185 6.68383 27.6701
640 1 -7.75892 5.71492 28.3769
641 1 -7.95838 5.79079 25.5258
642 1 -8.56169 4.74506 26.2612
643 1 -8.52462 4.79315 27.6589
733 1 -3.96874 8.65506 29.757
734 1 -4.93945 7.94643 30.5294
737 1 -5.9909 7.36622 29.814
738 1 -6.78296 6.45544 30.526
741 1 -7.64231 5.6775 29.7518
742 1 -8.28509 4.65164 30.4943
620 1 2.96124 9.21871 28.4438
621 1 2.90886 9.23175 25.5815
622 1 1.77405 9.65404 26.3106
623 1 1.76708 9.52673 27.7441
624 1 0.617728 9.85446 28.4101
625 1 0.584387 9.73832 25.5511
626 1 -0.636815 9.7374 26.2743
627 1 -0.583174 9.77461 27.7096
628 1 -1.77687 9.58407 28.436
629 1 -1.80399 9.51904 25.5285
630 1 -2.91802 9.13826 26.2415
631 1 -2.90352 9.13501 27.6559
721 1 2.99504 9.27356 29.8687
722 1 1.85697 9.67852 30.5161
725 1 0.643596 9.86333 29.8433
729 1 -1.76094 9.51476 29.859
730 1 -2.90379 9.1462 30.5235
619 1 3.92124 8.57997 27.684
608 1 8.37339 4.54538 28.4022
609 1 8.3768 4.56603 25.6151
610 1 7.59985 5.45769 26.2529
611 1 7.59076 5.48212 27.6785
612 1 6.79719 6.3668 28.3538
613 1 6.7593 6.31299 25.5443
614 1 5.89035 7.15054 26.2594
615 1 5.92021 7.15933 27.6638
616 1 5.03903 7.97472 28.3716
617 1 4.90036 7.8369 25.6031
618 1 4.0298 8.6754 26.2857
709 1 8.25135 4.52244 29.8127
713 1 6.82012 6.3978 29.8244
717 1 5.12767 8.04572 29.8347
762 1 -6.8848 -6.38667 30.5333
759 1 -8.33812 -4.45447 31.9192
760 1 -7.60599 -5.42877 32.6543
763 1 -6.85044 -6.36622 31.9258
764 1 -5.91098 -7.18632 32.6046
767 1 -4.99975 -7.93588 31.8704
768 1 -3.98649 -8.61559 32.5474
858 1 -8.17835 -4.46858 34.767
859 1 -8.22954 -4.50052 36.151
861 1 -7.5136 -5.47838 34.0333
862 1 -6.67668 -6.36415 34.7467
863 1 -6.80251 -6.51681 36.1082
865 1 -5.93306 -7.28404 34.0203
866 1 -5.04452 -8.10013 34.6803
867 1 -5.06189 -8.16731 36.1345
869 1 -3.96484 -8.59487 33.9928
771 1 -2.85073 -9.01959 31.8575
772 1 -1.6967 -9.34477 32.5971
775 1 -0.537415 -9.34211 31.867
776 1 0.662149 -9.44661 32.5454
779 1 1.83612 -9.29916 31.8224
780 1 3.01987 -9.09841 32.546
870 1 -2.86631 -8.99992 34.7119
871 1 -2.80529 -8.97009 36.1813
873 1 -1.71607 -9.26396 33.9873
874 1 -0.533113 -9.38563 34.7181
875 1 -0.489048 -9.40735 36.126
877 1 0.658297 -9.44048 33.9504
878 1 1.83907 -9.3434 34.7105
879 1 1.90068 -9.44099 36.1354
881 1 3.00342 -9.1295 33.9446
783 1 4.13451 -8.59469 31.8855
784 1 5.23697 -8.10059 32.6036
787 1 6.16734 -7.34472 31.8802
788 1 6.98508 -6.54692 32.6371
791 1 7.66029 -5.57496 31.8994
792 1 8.34616 -4.54614 32.6205
882 1 4.11016 -8.6054 34.6577
883 1 4.13542 -8.56097 36.1298
885 1 5.1824 -8.0286 34.0008
886 1 6.19366 -7.42013 34.7455
887 1 6.21068 -7.38368 36.1547
889 1 6.97535 -6.49558 34.0284
890 1 7.76919 -5.53528 34.7316
891 1 7.79422 -5.58364 36.1578
893 1 8.33033 -4.47365 34.0064
744 1 -9.00324 3.60018 32.6029
747 1 -9.40882 2.44371 31.908
748 1 -9.75405 1.33824 32.6459
751 1 -9.84035 0.118983 31.9175
752 1 -9.69423 -1.14133 32.6027
755 1 -9.38151 -2.33528 31.9048
756 1 -8.88386 -3.38647 32.6379
845 1 -8.93909 3.53971 34.006
846 1 -9.39891 2.48826 34.7344
847 1 -9.27963 2.43532 36.1339
849 1 -9.68133 1.31568 34.0369
850 1 -9.78261 0.086875 34.722
851 1 -9.77105 0.0416495 36.1606
853 1 -9.70652 -1.12235 33.9977
854 1 -9.35261 -2.25202 34.7286
855 1 -9.30342 -2.30756 36.1402
857 1 -8.80942 -3.37419 34.0192
798 1 9.78021 -1.24133 30.5807
703 1 9.70496 1.17245 31.9035
704 1 9.43837 2.36254 32.6237
707 1 8.94861 3.44116 31.8987
795 1 8.82391 -3.44765 31.924
796 1 9.36495 -2.39677 32.669
799 1 9.6662 -1.22225 31.9584
800 1 9.70353 -0.0297256 32.6531
801 1 9.72705 -0.0242591 34.0739
802 1 9.70418 1.18889 34.771
803 1 9.65145 1.21646 36.1924
805 1 9.56717 2.3853 34.0403
806 1 9.07344 3.51789 34.7765
807 1 8.98916 3.52117 36.229
894 1 8.90613 -3.45627 34.7538
895 1 8.90203 -3.48893 36.1695
897 1 9.35517 -2.38625 34.0707
898 1 9.64038 -1.22747 34.7763
899 1 9.64333 -1.23186 36.1783
732 1 -3.9955 8.698 32.6986
735 1 -4.97663 8.01366 31.9451
736 1 -5.9219 7.2594 32.6401
739 1 -6.89725 6.4808 31.9143
740 1 -7.6884 5.62333 32.6615
743 1 -8.37144 4.68798 31.8915
833 1 -3.99439 8.7074 34.096
834 1 -5.03479 7.99581 34.7452
835 1 -4.96486 7.9611 36.1485
837 1 -6.0081 7.31717 34.0194
838 1 -6.85315 6.48576 34.7383
839 1 -6.86314 6.48768 36.1449
841 1 -7.73385 5.62146 34.0454
842 1 -8.37089 4.57192 34.7417
843 1 -8.36326 4.63152 36.1286
726 1 -0.576953 9.8324 30.5326
720 1 2.97893 9.23594 32.6428
723 1 1.85643 9.67901 31.9212
724 1 0.691703 9.80035 32.6637
727 1 -0.544211 9.78055 31.9493
728 1 -1.76194 9.57918 32.6437
731 1 -2.94862 9.19105 31.9143
821 1 3.01705 9.22037 34.0723
822 1 1.84122 9.51191 34.7549
823 1 1.80737 9.46789 36.1944
825 1 0.650036 9.71641 34.049
826 1 -0.587626 9.69719 34.7659
827 1 -0.614768 9.76058 36.1608
829 1 -1.75925 9.44912 34.0484
830 1 -2.89244 9.21991 34.7946
831 1 -2.9475 9.19643 36.222
710 1 7.53472 5.40688 30.5533
714 1 5.9873 7.23714 30.5707
718 1 4.10068 8.69629 30.5395
708 1 8.35012 4.4361 32.6335
711 1 7.69766 5.50318 31.9501
712 1 6.87177 6.44162 32.6319
715 1 5.97729 7.29083 31.9754
716 1 5.04378 8.05602 32.6242
719 1 4.0834 8.77195 31.9309
809 1 8.48343 4.59605 34.0464
810 1 7.7017 5.5395 34.7585
811 1 7.69655 5.49608 36.18
813 1 6.85163 6.42622 34.0608
814 1 6.06485 7.25972 34.8104
815 1 6.02269 7.23932 36.1636
817 1 5.04051 7.96429 34.1086
818 1 3.98139 8.60549 34.7999
819 1 3.97317 8.483 36.2091
860 1 -7.51254 -5.51011 36.8435
864 1 -5.95976 -7.35923 36.87
868 1 -4.0147 -8.71313 36.8792
958 1 -8.31079 -4.53944 38.9522
959 1 -8.35451 -4.58045 40.3899
960 1 -7.6104 -5.53588 41.1002
961 1 -7.66923 -5.60552 38.224
962 1 -6.84686 -6.47557 38.9813
963 1 -6.84354 -6.45823 40.3809
964 1 -5.90446 -7.21434 41.1324
965 1 -5.9614 -7.33385 38.2821
966 1 -4.97073 -7.99528 39.0024
967 1 -5.03138 -8.06378 40.4223
968 1 -4.02227 -8.67576 41.179
1061 1 -7.72993 -5.59292 42.5321
1065 1 -5.94989 -7.30947 42.5367
1069 1 -3.9839 -8.62434 42.5511
969 1 -3.91902 -8.59742 38.299
872 1 -1.6593 -9.25254 36.8655
876 1 0.697481 -9.62514 36.869
880 1 3.06533 -9.10456 36.8474
970 1 -2.84086 -9.08451 39.0246
971 1 -2.88621 -9.08453 40.4465
972 1 -1.68202 -9.28884 41.1342
973 1 -1.66422 -9.30646 38.2741
974 1 -0.485948 -9.50734 38.9793
975 1 -0.467244 -9.37242 40.3946
976 1 0.73861 -9.55691 41.1111
977 1 0.710799 -9.58343 38.2382
978 1 1.87201 -9.41705 38.9311
979 1 1.91274 -9.3091 40.3716
980 1 3.08039 -9.19122 41.1201
981 1 3.01229 -9.01147 38.26
1073 1 -1.70784 -9.33881 42.5043
1077 1 0.677782 -9.54999 42.5008
1081 1 3.04086 -9.2092 42.5479
884 1 5.32463 -8.22932 36.8358
888 1 7.09122 -6.56168 36.8836
892 1 8.43826 -4.581 36.8934
982 1 4.15647 -8.61947 39.0058
983 1 4.15272 -8.65876 40.4332
984 1 5.16529 -8.00694 41.1255
985 1 5.29457 -8.20142 38.2961
986 1 6.23304 -7.44707 38.9795
987 1 6.21803 -7.44367 40.4028
988 1 7.00891 -6.55475 41.1053
989 1 7.09675 -6.59913 38.3049
990 1 7.772 -5.60031 39.014
991 1 7.73462 -5.53296 40.4294
992 1 8.45006 -4.64053 41.21
993 1 8.51933 -4.60637 38.2974
1085 1 5.16212 -8.10579 42.5265
1089 1 7.06077 -6.50506 42.5505
1093 1 8.45628 -4.65311 42.598
844 1 -8.97438 3.59126 36.8462
848 1 -9.55199 1.25298 36.863
852 1 -9.4513 -1.10729 36.8459
856 1 -8.76239 -3.38569 36.8645
944 1 -8.79386 3.50205 41.1066
945 1 -8.95485 3.52698 38.247
946 1 -9.25269 2.39878 38.9969
947 1 -9.21784 2.40191 40.3929
948 1 -9.41653 1.19276 41.1157
949 1 -9.57795 1.27793 38.2678
950 1 -9.7414 0.0448137 38.9565
951 1 -9.65007 0.0335382 40.394
952 1 -9.54265 -1.17058 41.1074
953 1 -9.58761 -1.16024 38.2521
954 1 -9.15687 -2.31293 38.9224
955 1 -9.25362 -2.35878 40.3583
956 1 -8.92145 -3.48615 41.1155
957 1 -8.79443 -3.44167 38.2426
1045 1 -8.91173 3.48466 42.5221
1049 1 -9.42253 1.17133 42.5333
1053 1 -9.53207 -1.18763 42.4847
1057 1 -8.93819 -3.56152 42.5025
804 1 9.4699 2.36625 36.9477
896 1 9.46758 -2.40966 36.9288
900 1 9.7759 -0.0167361 36.8488
901 1 9.69373 -0.0560118 38.2736
902 1 9.63962 1.1332 39.0201
903 1 9.50424 1.14023 40.4524
904 1 9.34729 2.3388 41.1211
905 1 9.49157 2.37898 38.3361
906 1 9.08986 3.54209 39.0158
907 1 8.9708 3.46885 40.4477
994 1 9.13756 -3.58695 39.0776
995 1 9.07203 -3.61236 40.4806
996 1 9.54651 -2.47493 41.1703
997 1 9.37539 -2.36438 38.3439