LAMMPS (4 May 2022)
  using 1 OpenMP thread(s) per MPI task
### TBC-1 input script for LAMMPS version 7 Dec 2015

#thermal properties of CNT_1_6_0.51

log /ascldap/users/bcma/Thermal_CNT_0_25_1.96/Thermal_CNT_0_25_1.96.dat.log.lammps
